LAMMPS (3 Mar 2020)
Total wall time: 0:00:00
