LAMMPS (3 Mar 2020)
# problem setup for Monte Carlo relaxation of perturbed 2d hex lattice

# same as example/MC/in.mc



units		lj

atom_style	atomic

atom_modify     map array sort 0 0.0



dimension       2



lattice		hex 1.0

Lattice spacing in x,y,z = 1.07457 1.86121 1.07457
region		box block 0 10 0 5 -0.5 0.5



create_box	1 box

Created orthogonal box = (0 0 -0.537285) to (10.7457 9.30605 0.537285)
  1 by 1 by 1 MPI processor grid
create_atoms	1 box

Created 100 atoms
  create_atoms CPU = 0.000390053 secs
mass		1 1.0



pair_style	lj/cut 2.5

pair_coeff	1 1 1.0 1.0 2.5

pair_modify     shift yes



neighbor	0.3 bin

neigh_modify	delay 0 every 1 check yes

variable e equal pe
run 0
WARNING: No fixes defined, atoms won't move (../verlet.cpp:52)
Neighbor list info ...
  update every 1 steps, delay 0 steps, check yes
  max neighbors/atom: 2000, page size: 100000
  master list distance cutoff = 2.8
  ghost atom cutoff = 2.8
  binsize = 1.4, bins = 8 7 1
  1 neighbor lists, perpetual/occasional/extra = 1 0 0
  (1) pair lj/cut, perpetual
      attributes: half, newton on
      pair build: half/bin/atomonly/newton
      stencil: half/bin/2d/newton
      bin: standard
Per MPI rank memory allocation (min/avg/max) = 2.928 | 2.928 | 2.928 Mbytes
Step Temp E_pair E_mol TotEng Press 
       0            0   -2.9871562            0   -2.9871562    5.8100167 
Loop time of 2.14577e-06 on 1 procs for 0 steps with 100 atoms

0.0% CPU use with 1 MPI tasks x no OpenMP threads

MPI task timing breakdown:
Section |  min time  |  avg time  |  max time  |%varavg| %total
---------------------------------------------------------------
Pair    | 0          | 0          | 0          |   0.0 |  0.00
Neigh   | 0          | 0          | 0          |   0.0 |  0.00
Comm    | 0          | 0          | 0          |   0.0 |  0.00
Output  | 0          | 0          | 0          |   0.0 |  0.00
Modify  | 0          | 0          | 0          |   0.0 |  0.00
Other   |            | 2.146e-06  |            |       |100.00

Nlocal:    100 ave 100 max 100 min
Histogram: 1 0 0 0 0 0 0 0 0 0
Nghost:    164 ave 164 max 164 min
Histogram: 1 0 0 0 0 0 0 0 0 0
Neighs:    900 ave 900 max 900 min
Histogram: 1 0 0 0 0 0 0 0 0 0

Total # of neighbors = 900
Ave neighs/atom = 9
Neighbor list builds = 0
Dangerous builds = 0
variable emin equal $e
variable emin equal -2.98715616447945
variable elast equal $e
variable elast equal -2.98715616447945
thermo_style custom step v_emin v_elast pe
run 0
WARNING: No fixes defined, atoms won't move (../verlet.cpp:52)
Per MPI rank memory allocation (min/avg/max) = 2.928 | 2.928 | 2.928 Mbytes
Step v_emin v_elast PotEng 
       0   -2.9871562   -2.9871562    23.597376 
Loop time of 9.53674e-07 on 1 procs for 0 steps with 100 atoms

0.0% CPU use with 1 MPI tasks x no OpenMP threads

MPI task timing breakdown:
Section |  min time  |  avg time  |  max time  |%varavg| %total
---------------------------------------------------------------
Pair    | 0          | 0          | 0          |   0.0 |  0.00
Neigh   | 0          | 0          | 0          |   0.0 |  0.00
Comm    | 0          | 0          | 0          |   0.0 |  0.00
Output  | 0          | 0          | 0          |   0.0 |  0.00
Modify  | 0          | 0          | 0          |   0.0 |  0.00
Other   |            | 9.537e-07  |            |       |100.00

Nlocal:    100 ave 100 max 100 min
Histogram: 1 0 0 0 0 0 0 0 0 0
Nghost:    140 ave 140 max 140 min
Histogram: 1 0 0 0 0 0 0 0 0 0
Neighs:    1141 ave 1141 max 1141 min
Histogram: 1 0 0 0 0 0 0 0 0 0

Total # of neighbors = 1141
Ave neighs/atom = 11.41
Neighbor list builds = 0
Dangerous builds = 0
variable elast equal $e
variable elast equal 23.5973758732705
run 1 pre no post no
Step v_emin v_elast PotEng 
       0   -2.9871562    23.597376    23.597376 
       1   -2.9871562    23.597376    24.400516 
Loop time of 8.01086e-05 on 1 procs for 1 steps with 100 atoms

run 1 pre no post no
Step v_emin v_elast PotEng 
       1   -2.9871562    23.597376    24.400516 
       2   -2.9871562    23.597376    23.568968 
Loop time of 7.20024e-05 on 1 procs for 1 steps with 100 atoms

variable elast equal $e
variable elast equal 23.5689681080773
run 1 pre no post no
Step v_emin v_elast PotEng 
       2   -2.9871562    23.568968    23.568968 
       3   -2.9871562    23.568968    23.580028 
Loop time of 7.10487e-05 on 1 procs for 1 steps with 100 atoms

run 1 pre no post no
Step v_emin v_elast PotEng 
       3   -2.9871562    23.568968    23.580028 
       4   -2.9871562    23.568968     23.59877 
Loop time of 9.58443e-05 on 1 procs for 1 steps with 100 atoms

run 1 pre no post no
Step v_emin v_elast PotEng 
       4   -2.9871562    23.568968     23.59877 
       5   -2.9871562    23.568968    23.745093 
Loop time of 7.10487e-05 on 1 procs for 1 steps with 100 atoms

run 1 pre no post no
Step v_emin v_elast PotEng 
       5   -2.9871562    23.568968    23.745093 
       6   -2.9871562    23.568968    23.676167 
Loop time of 7.00951e-05 on 1 procs for 1 steps with 100 atoms

run 1 pre no post no
Step v_emin v_elast PotEng 
       6   -2.9871562    23.568968    23.676167 
       7   -2.9871562    23.568968    23.590201 
Loop time of 6.98566e-05 on 1 procs for 1 steps with 100 atoms

run 1 pre no post no
Step v_emin v_elast PotEng 
       7   -2.9871562    23.568968    23.590201 
       8   -2.9871562    23.568968    23.596432 
Loop time of 6.8903e-05 on 1 procs for 1 steps with 100 atoms

run 1 pre no post no
Step v_emin v_elast PotEng 
       8   -2.9871562    23.568968    23.596432 
       9   -2.9871562    23.568968    23.654437 
Loop time of 7.00951e-05 on 1 procs for 1 steps with 100 atoms

run 1 pre no post no
Step v_emin v_elast PotEng 
       9   -2.9871562    23.568968    23.654437 
      10   -2.9871562    23.568968    23.565976 
Loop time of 7.00951e-05 on 1 procs for 1 steps with 100 atoms

variable elast equal $e
variable elast equal 23.5659758639446
run 1 pre no post no
Step v_emin v_elast PotEng 
      10   -2.9871562    23.565976    23.565976 
      11   -2.9871562    23.565976    24.757388 
Loop time of 7.10487e-05 on 1 procs for 1 steps with 100 atoms

run 1 pre no post no
Step v_emin v_elast PotEng 
      11   -2.9871562    23.565976    24.757388 
      12   -2.9871562    23.565976    23.286914 
Loop time of 7.10487e-05 on 1 procs for 1 steps with 100 atoms

variable elast equal $e
variable elast equal 23.286914206158
run 1 pre no post no
Step v_emin v_elast PotEng 
      12   -2.9871562    23.286914    23.286914 
      13   -2.9871562    23.286914     23.87676 
Loop time of 6.98566e-05 on 1 procs for 1 steps with 100 atoms

run 1 pre no post no
Step v_emin v_elast PotEng 
      13   -2.9871562    23.286914     23.87676 
      14   -2.9871562    23.286914    23.659801 
Loop time of 6.91414e-05 on 1 procs for 1 steps with 100 atoms

run 1 pre no post no
Step v_emin v_elast PotEng 
      14   -2.9871562    23.286914    23.659801 
      15   -2.9871562    23.286914    23.382553 
Loop time of 6.98566e-05 on 1 procs for 1 steps with 100 atoms

run 1 pre no post no
Step v_emin v_elast PotEng 
      15   -2.9871562    23.286914    23.382553 
      16   -2.9871562    23.286914    24.205025 
Loop time of 7.00951e-05 on 1 procs for 1 steps with 100 atoms

run 1 pre no post no
Step v_emin v_elast PotEng 
      16   -2.9871562    23.286914    24.205025 
      17   -2.9871562    23.286914    24.306388 
Loop time of 7.10487e-05 on 1 procs for 1 steps with 100 atoms

run 1 pre no post no
Step v_emin v_elast PotEng 
      17   -2.9871562    23.286914    24.306388 
      18   -2.9871562    23.286914    23.505567 
Loop time of 7.08103e-05 on 1 procs for 1 steps with 100 atoms

run 1 pre no post no
Step v_emin v_elast PotEng 
      18   -2.9871562    23.286914    23.505567 
      19   -2.9871562    23.286914    23.298437 
Loop time of 7.00951e-05 on 1 procs for 1 steps with 100 atoms

run 1 pre no post no
Step v_emin v_elast PotEng 
      19   -2.9871562    23.286914    23.298437 
      20   -2.9871562    23.286914    23.562676 
Loop time of 7.00951e-05 on 1 procs for 1 steps with 100 atoms

run 1 pre no post no
Step v_emin v_elast PotEng 
      20   -2.9871562    23.286914    23.562676 
      21   -2.9871562    23.286914    23.417884 
Loop time of 6.98566e-05 on 1 procs for 1 steps with 100 atoms

run 1 pre no post no
Step v_emin v_elast PotEng 
      21   -2.9871562    23.286914    23.417884 
      22   -2.9871562    23.286914    23.197789 
Loop time of 7.00951e-05 on 1 procs for 1 steps with 100 atoms

variable elast equal $e
variable elast equal 23.1977887044123
run 1 pre no post no
Step v_emin v_elast PotEng 
      22   -2.9871562    23.197789    23.197789 
      23   -2.9871562    23.197789    23.202536 
Loop time of 7.10487e-05 on 1 procs for 1 steps with 100 atoms

run 1 pre no post no
Step v_emin v_elast PotEng 
      23   -2.9871562    23.197789    23.202536 
      24   -2.9871562    23.197789    22.958148 
Loop time of 6.91414e-05 on 1 procs for 1 steps with 100 atoms

variable elast equal $e
variable elast equal 22.9581483542853
run 1 pre no post no
Step v_emin v_elast PotEng 
      24   -2.9871562    22.958148    22.958148 
      25   -2.9871562    22.958148     22.99976 
Loop time of 6.8903e-05 on 1 procs for 1 steps with 100 atoms

run 1 pre no post no
Step v_emin v_elast PotEng 
      25   -2.9871562    22.958148     22.99976 
      26   -2.9871562    22.958148    22.965373 
Loop time of 7.00951e-05 on 1 procs for 1 steps with 100 atoms

run 1 pre no post no
Step v_emin v_elast PotEng 
      26   -2.9871562    22.958148    22.965373 
      27   -2.9871562    22.958148    22.884961 
Loop time of 7.00951e-05 on 1 procs for 1 steps with 100 atoms

variable elast equal $e
variable elast equal 22.8849606714242
run 1 pre no post no
Step v_emin v_elast PotEng 
      27   -2.9871562    22.884961    22.884961 
      28   -2.9871562    22.884961     22.88746 
Loop time of 6.98566e-05 on 1 procs for 1 steps with 100 atoms

run 1 pre no post no
Step v_emin v_elast PotEng 
      28   -2.9871562    22.884961     22.88746 
      29   -2.9871562    22.884961    21.821467 
Loop time of 9.70364e-05 on 1 procs for 1 steps with 100 atoms

variable elast equal $e
variable elast equal 21.8214668668174
run 1 pre no post no
Step v_emin v_elast PotEng 
      29   -2.9871562    21.821467    21.821467 
      30   -2.9871562    21.821467    21.651261 
Loop time of 5.50747e-05 on 1 procs for 1 steps with 100 atoms

variable elast equal $e
variable elast equal 21.6512608764741
run 1 pre no post no
Step v_emin v_elast PotEng 
      30   -2.9871562    21.651261    21.651261 
      31   -2.9871562    21.651261    20.989685 
Loop time of 5.38826e-05 on 1 procs for 1 steps with 100 atoms

variable elast equal $e
variable elast equal 20.9896846102498
run 1 pre no post no
Step v_emin v_elast PotEng 
      31   -2.9871562    20.989685    20.989685 
      32   -2.9871562    20.989685    21.126301 
Loop time of 5.60284e-05 on 1 procs for 1 steps with 100 atoms

run 1 pre no post no
Step v_emin v_elast PotEng 
      32   -2.9871562    20.989685    21.126301 
      33   -2.9871562    20.989685    21.563214 
Loop time of 5.48363e-05 on 1 procs for 1 steps with 100 atoms

run 1 pre no post no
Step v_emin v_elast PotEng 
      33   -2.9871562    20.989685    21.563214 
      34   -2.9871562    20.989685        21.01 
Loop time of 5.50747e-05 on 1 procs for 1 steps with 100 atoms

run 1 pre no post no
Step v_emin v_elast PotEng 
      34   -2.9871562    20.989685        21.01 
      35   -2.9871562    20.989685    21.024917 
Loop time of 5.50747e-05 on 1 procs for 1 steps with 100 atoms

run 1 pre no post no
Step v_emin v_elast PotEng 
      35   -2.9871562    20.989685    21.024917 
      36   -2.9871562    20.989685    20.921652 
Loop time of 5.50747e-05 on 1 procs for 1 steps with 100 atoms

variable elast equal $e
variable elast equal 20.9216516588914
run 1 pre no post no
Step v_emin v_elast PotEng 
      36   -2.9871562    20.921652    20.921652 
      37   -2.9871562    20.921652    20.842099 
Loop time of 5.48363e-05 on 1 procs for 1 steps with 100 atoms

variable elast equal $e
variable elast equal 20.84209910395
run 1 pre no post no
Step v_emin v_elast PotEng 
      37   -2.9871562    20.842099    20.842099 
      38   -2.9871562    20.842099    20.914248 
Loop time of 5.50747e-05 on 1 procs for 1 steps with 100 atoms

run 1 pre no post no
Step v_emin v_elast PotEng 
      38   -2.9871562    20.842099    20.914248 
      39   -2.9871562    20.842099    23.590782 
Loop time of 5.48363e-05 on 1 procs for 1 steps with 100 atoms

run 1 pre no post no
Step v_emin v_elast PotEng 
      39   -2.9871562    20.842099    23.590782 
      40   -2.9871562    20.842099      20.8533 
Loop time of 5.50747e-05 on 1 procs for 1 steps with 100 atoms

run 1 pre no post no
Step v_emin v_elast PotEng 
      40   -2.9871562    20.842099      20.8533 
      41   -2.9871562    20.842099    20.856193 
Loop time of 5.50747e-05 on 1 procs for 1 steps with 100 atoms

run 1 pre no post no
Step v_emin v_elast PotEng 
      41   -2.9871562    20.842099    20.856193 
      42   -2.9871562    20.842099    20.724661 
Loop time of 5.50747e-05 on 1 procs for 1 steps with 100 atoms

variable elast equal $e
variable elast equal 20.7246605574702
run 1 pre no post no
Step v_emin v_elast PotEng 
      42   -2.9871562    20.724661    20.724661 
      43   -2.9871562    20.724661    22.428083 
Loop time of 5.50747e-05 on 1 procs for 1 steps with 100 atoms

run 1 pre no post no
Step v_emin v_elast PotEng 
      43   -2.9871562    20.724661    22.428083 
      44   -2.9871562    20.724661    20.631989 
Loop time of 5.50747e-05 on 1 procs for 1 steps with 100 atoms

variable elast equal $e
variable elast equal 20.631988595898
run 1 pre no post no
Step v_emin v_elast PotEng 
      44   -2.9871562    20.631989    20.631989 
      45   -2.9871562    20.631989     20.46822 
Loop time of 5.50747e-05 on 1 procs for 1 steps with 100 atoms

variable elast equal $e
variable elast equal 20.4682204994552
run 1 pre no post no
Step v_emin v_elast PotEng 
      45   -2.9871562     20.46822     20.46822 
      46   -2.9871562     20.46822    21.037018 
Loop time of 5.50747e-05 on 1 procs for 1 steps with 100 atoms

run 1 pre no post no
Step v_emin v_elast PotEng 
      46   -2.9871562     20.46822    21.037018 
      47   -2.9871562     20.46822    20.480214 
Loop time of 5.50747e-05 on 1 procs for 1 steps with 100 atoms

run 1 pre no post no
Step v_emin v_elast PotEng 
      47   -2.9871562     20.46822    20.480214 
      48   -2.9871562     20.46822    20.528437 
Loop time of 5.50747e-05 on 1 procs for 1 steps with 100 atoms

run 1 pre no post no
Step v_emin v_elast PotEng 
      48   -2.9871562     20.46822    20.528437 
      49   -2.9871562     20.46822    20.384712 
Loop time of 5.50747e-05 on 1 procs for 1 steps with 100 atoms

variable elast equal $e
variable elast equal 20.3847123982508
run 1 pre no post no
Step v_emin v_elast PotEng 
      49   -2.9871562    20.384712    20.384712 
      50   -2.9871562    20.384712    20.313687 
Loop time of 5.4121e-05 on 1 procs for 1 steps with 100 atoms

variable elast equal $e
variable elast equal 20.313687434677
run 1 pre no post no
Step v_emin v_elast PotEng 
      50   -2.9871562    20.313687    20.313687 
      51   -2.9871562    20.313687    20.293948 
Loop time of 5.38826e-05 on 1 procs for 1 steps with 100 atoms

variable elast equal $e
variable elast equal 20.2939479606145
run 1 pre no post no
Step v_emin v_elast PotEng 
      51   -2.9871562    20.293948    20.293948 
      52   -2.9871562    20.293948    20.276229 
Loop time of 6.79493e-05 on 1 procs for 1 steps with 100 atoms

variable elast equal $e
variable elast equal 20.27622882209
run 1 pre no post no
Step v_emin v_elast PotEng 
      52   -2.9871562    20.276229    20.276229 
      53   -2.9871562    20.276229    19.818141 
Loop time of 5.48363e-05 on 1 procs for 1 steps with 100 atoms

variable elast equal $e
variable elast equal 19.8181410917175
run 1 pre no post no
Step v_emin v_elast PotEng 
      53   -2.9871562    19.818141    19.818141 
      54   -2.9871562    19.818141    20.233631 
Loop time of 5.50747e-05 on 1 procs for 1 steps with 100 atoms

run 1 pre no post no
Step v_emin v_elast PotEng 
      54   -2.9871562    19.818141    20.233631 
      55   -2.9871562    19.818141    19.819784 
Loop time of 5.50747e-05 on 1 procs for 1 steps with 100 atoms

run 1 pre no post no
Step v_emin v_elast PotEng 
      55   -2.9871562    19.818141    19.819784 
      56   -2.9871562    19.818141    19.818423 
Loop time of 5.50747e-05 on 1 procs for 1 steps with 100 atoms

run 1 pre no post no
Step v_emin v_elast PotEng 
      56   -2.9871562    19.818141    19.818423 
      57   -2.9871562    19.818141    20.562103 
Loop time of 5.48363e-05 on 1 procs for 1 steps with 100 atoms

run 1 pre no post no
Step v_emin v_elast PotEng 
      57   -2.9871562    19.818141    20.562103 
      58   -2.9871562    19.818141    19.770034 
Loop time of 5.48363e-05 on 1 procs for 1 steps with 100 atoms

variable elast equal $e
variable elast equal 19.7700341145437
run 1 pre no post no
Step v_emin v_elast PotEng 
      58   -2.9871562    19.770034    19.770034 
      59   -2.9871562    19.770034    19.868566 
Loop time of 5.50747e-05 on 1 procs for 1 steps with 100 atoms

run 1 pre no post no
Step v_emin v_elast PotEng 
      59   -2.9871562    19.770034    19.868566 
      60   -2.9871562    19.770034    19.542442 
Loop time of 7.29561e-05 on 1 procs for 1 steps with 100 atoms

variable elast equal $e
variable elast equal 19.5424422826852
run 1 pre no post no
Step v_emin v_elast PotEng 
      60   -2.9871562    19.542442    19.542442 
      61   -2.9871562    19.542442    19.573859 
Loop time of 5.6982e-05 on 1 procs for 1 steps with 100 atoms

run 1 pre no post no
Step v_emin v_elast PotEng 
      61   -2.9871562    19.542442    19.573859 
      62   -2.9871562    19.542442    19.648538 
Loop time of 5.48363e-05 on 1 procs for 1 steps with 100 atoms

run 1 pre no post no
Step v_emin v_elast PotEng 
      62   -2.9871562    19.542442    19.648538 
      63   -2.9871562    19.542442    19.545604 
Loop time of 5.48363e-05 on 1 procs for 1 steps with 100 atoms

run 1 pre no post no
Step v_emin v_elast PotEng 
      63   -2.9871562    19.542442    19.545604 
      64   -2.9871562    19.542442     19.57308 
Loop time of 5.48363e-05 on 1 procs for 1 steps with 100 atoms

run 1 pre no post no
Step v_emin v_elast PotEng 
      64   -2.9871562    19.542442     19.57308 
      65   -2.9871562    19.542442    19.579745 
Loop time of 5.48363e-05 on 1 procs for 1 steps with 100 atoms

run 1 pre no post no
Step v_emin v_elast PotEng 
      65   -2.9871562    19.542442    19.579745 
      66   -2.9871562    19.542442    19.487772 
Loop time of 5.48363e-05 on 1 procs for 1 steps with 100 atoms

variable elast equal $e
variable elast equal 19.4877715722534
run 1 pre no post no
Step v_emin v_elast PotEng 
      66   -2.9871562    19.487772    19.487772 
      67   -2.9871562    19.487772    19.515367 
Loop time of 5.50747e-05 on 1 procs for 1 steps with 100 atoms

run 1 pre no post no
Step v_emin v_elast PotEng 
      67   -2.9871562    19.487772    19.515367 
      68   -2.9871562    19.487772    19.419991 
Loop time of 7.29561e-05 on 1 procs for 1 steps with 100 atoms

variable elast equal $e
variable elast equal 19.4199909707494
run 1 pre no post no
Step v_emin v_elast PotEng 
      68   -2.9871562    19.419991    19.419991 
      69   -2.9871562    19.419991    19.564834 
Loop time of 5.60284e-05 on 1 procs for 1 steps with 100 atoms

run 1 pre no post no
Step v_emin v_elast PotEng 
      69   -2.9871562    19.419991    19.564834 
      70   -2.9871562    19.419991    19.109754 
Loop time of 5.50747e-05 on 1 procs for 1 steps with 100 atoms

variable elast equal $e
variable elast equal 19.1097537682914
run 1 pre no post no
Step v_emin v_elast PotEng 
      70   -2.9871562    19.109754    19.109754 
      71   -2.9871562    19.109754    19.107696 
Loop time of 5.50747e-05 on 1 procs for 1 steps with 100 atoms

variable elast equal $e
variable elast equal 19.1076962122274
run 1 pre no post no
Step v_emin v_elast PotEng 
      71   -2.9871562    19.107696    19.107696 
      72   -2.9871562    19.107696    19.167994 
Loop time of 5.50747e-05 on 1 procs for 1 steps with 100 atoms

run 1 pre no post no
Step v_emin v_elast PotEng 
      72   -2.9871562    19.107696    19.167994 
      73   -2.9871562    19.107696    19.283444 
Loop time of 5.50747e-05 on 1 procs for 1 steps with 100 atoms

run 1 pre no post no
Step v_emin v_elast PotEng 
      73   -2.9871562    19.107696    19.283444 
      74   -2.9871562    19.107696    19.216125 
Loop time of 5.48363e-05 on 1 procs for 1 steps with 100 atoms

run 1 pre no post no
Step v_emin v_elast PotEng 
      74   -2.9871562    19.107696    19.216125 
      75   -2.9871562    19.107696     19.03897 
Loop time of 5.48363e-05 on 1 procs for 1 steps with 100 atoms

variable elast equal $e
variable elast equal 19.0389698195003
run 1 pre no post no
Step v_emin v_elast PotEng 
      75   -2.9871562     19.03897     19.03897 
      76   -2.9871562     19.03897    19.015092 
Loop time of 7.20024e-05 on 1 procs for 1 steps with 100 atoms

variable elast equal $e
variable elast equal 19.0150916454335
run 1 pre no post no
Step v_emin v_elast PotEng 
      76   -2.9871562    19.015092    19.015092 
      77   -2.9871562    19.015092    18.988819 
Loop time of 5.50747e-05 on 1 procs for 1 steps with 100 atoms

variable elast equal $e
variable elast equal 18.9888191515194
run 1 pre no post no
Step v_emin v_elast PotEng 
      77   -2.9871562    18.988819    18.988819 
      78   -2.9871562    18.988819    18.961923 
Loop time of 5.4121e-05 on 1 procs for 1 steps with 100 atoms

variable elast equal $e
variable elast equal 18.9619231414015
run 1 pre no post no
Step v_emin v_elast PotEng 
      78   -2.9871562    18.961923    18.961923 
      79   -2.9871562    18.961923    19.941997 
Loop time of 5.50747e-05 on 1 procs for 1 steps with 100 atoms

run 1 pre no post no
Step v_emin v_elast PotEng 
      79   -2.9871562    18.961923    19.941997 
      80   -2.9871562    18.961923    18.942404 
Loop time of 5.50747e-05 on 1 procs for 1 steps with 100 atoms

variable elast equal $e
variable elast equal 18.942403977935
run 1 pre no post no
Step v_emin v_elast PotEng 
      80   -2.9871562    18.942404    18.942404 
      81   -2.9871562    18.942404    18.984119 
Loop time of 5.50747e-05 on 1 procs for 1 steps with 100 atoms

run 1 pre no post no
Step v_emin v_elast PotEng 
      81   -2.9871562    18.942404    18.984119 
      82   -2.9871562    18.942404    18.938392 
Loop time of 5.50747e-05 on 1 procs for 1 steps with 100 atoms

variable elast equal $e
variable elast equal 18.9383924415215
run 1 pre no post no
Step v_emin v_elast PotEng 
      82   -2.9871562    18.938392    18.938392 
      83   -2.9871562    18.938392    18.932071 
Loop time of 5.50747e-05 on 1 procs for 1 steps with 100 atoms

variable elast equal $e
variable elast equal 18.9320710515509
run 1 pre no post no
Step v_emin v_elast PotEng 
      83   -2.9871562    18.932071    18.932071 
      84   -2.9871562    18.932071    18.942963 
Loop time of 5.60284e-05 on 1 procs for 1 steps with 100 atoms

run 1 pre no post no
Step v_emin v_elast PotEng 
      84   -2.9871562    18.932071    18.942963 
      85   -2.9871562    18.932071    18.957645 
Loop time of 5.4121e-05 on 1 procs for 1 steps with 100 atoms

run 1 pre no post no
Step v_emin v_elast PotEng 
      85   -2.9871562    18.932071    18.957645 
      86   -2.9871562    18.932071    18.754935 
Loop time of 5.50747e-05 on 1 procs for 1 steps with 100 atoms

variable elast equal $e
variable elast equal 18.7549346851034
run 1 pre no post no
Step v_emin v_elast PotEng 
      86   -2.9871562    18.754935    18.754935 
      87   -2.9871562    18.754935    18.684276 
Loop time of 5.48363e-05 on 1 procs for 1 steps with 100 atoms

variable elast equal $e
variable elast equal 18.6842761771566
run 1 pre no post no
Step v_emin v_elast PotEng 
      87   -2.9871562    18.684276    18.684276 
      88   -2.9871562    18.684276    20.460378 
Loop time of 5.4121e-05 on 1 procs for 1 steps with 100 atoms

run 1 pre no post no
Step v_emin v_elast PotEng 
      88   -2.9871562    18.684276    20.460378 
      89   -2.9871562    18.684276    18.662395 
Loop time of 5.50747e-05 on 1 procs for 1 steps with 100 atoms

variable elast equal $e
variable elast equal 18.6623948047545
run 1 pre no post no
Step v_emin v_elast PotEng 
      89   -2.9871562    18.662395    18.662395 
      90   -2.9871562    18.662395    19.515321 
Loop time of 5.50747e-05 on 1 procs for 1 steps with 100 atoms

run 1 pre no post no
Step v_emin v_elast PotEng 
      90   -2.9871562    18.662395    19.515321 
      91   -2.9871562    18.662395    18.745676 
Loop time of 5.50747e-05 on 1 procs for 1 steps with 100 atoms

run 1 pre no post no
Step v_emin v_elast PotEng 
      91   -2.9871562    18.662395    18.745676 
      92   -2.9871562    18.662395    17.855795 
Loop time of 5.50747e-05 on 1 procs for 1 steps with 100 atoms

variable elast equal $e
variable elast equal 17.8557949143612
run 1 pre no post no
Step v_emin v_elast PotEng 
      92   -2.9871562    17.855795    17.855795 
      93   -2.9871562    17.855795    17.791116 
Loop time of 5.48363e-05 on 1 procs for 1 steps with 100 atoms

variable elast equal $e
variable elast equal 17.7911159244816
run 1 pre no post no
Step v_emin v_elast PotEng 
      93   -2.9871562    17.791116    17.791116 
      94   -2.9871562    17.791116    18.375424 
Loop time of 5.50747e-05 on 1 procs for 1 steps with 100 atoms

run 1 pre no post no
Step v_emin v_elast PotEng 
      94   -2.9871562    17.791116    18.375424 
      95   -2.9871562    17.791116    17.785535 
Loop time of 5.50747e-05 on 1 procs for 1 steps with 100 atoms

variable elast equal $e
variable elast equal 17.7855345935783
run 1 pre no post no
Step v_emin v_elast PotEng 
      95   -2.9871562    17.785535    17.785535 
      96   -2.9871562    17.785535    17.759134 
Loop time of 5.38826e-05 on 1 procs for 1 steps with 100 atoms

variable elast equal $e
variable elast equal 17.7591339578088
run 1 pre no post no
Step v_emin v_elast PotEng 
      96   -2.9871562    17.759134    17.759134 
      97   -2.9871562    17.759134     17.81914 
Loop time of 5.4121e-05 on 1 procs for 1 steps with 100 atoms

run 1 pre no post no
Step v_emin v_elast PotEng 
      97   -2.9871562    17.759134     17.81914 
      98   -2.9871562    17.759134    18.462773 
Loop time of 5.50747e-05 on 1 procs for 1 steps with 100 atoms

run 1 pre no post no
Step v_emin v_elast PotEng 
      98   -2.9871562    17.759134    18.462773 
      99   -2.9871562    17.759134    17.824363 
Loop time of 6.91414e-05 on 1 procs for 1 steps with 100 atoms

run 1 pre no post no
Step v_emin v_elast PotEng 
      99   -2.9871562    17.759134    17.824363 
     100   -2.9871562    17.759134    17.693565 
Loop time of 5.50747e-05 on 1 procs for 1 steps with 100 atoms

variable elast equal $e
variable elast equal 17.6935648098991
run 1 pre no post no
Step v_emin v_elast PotEng 
     100   -2.9871562    17.693565    17.693565 
     101   -2.9871562    17.693565    17.697872 
Loop time of 5.50747e-05 on 1 procs for 1 steps with 100 atoms

run 1 pre no post no
Step v_emin v_elast PotEng 
     101   -2.9871562    17.693565    17.697872 
     102   -2.9871562    17.693565    17.765737 
Loop time of 5.60284e-05 on 1 procs for 1 steps with 100 atoms

run 1 pre no post no
Step v_emin v_elast PotEng 
     102   -2.9871562    17.693565    17.765737 
     103   -2.9871562    17.693565    17.692715 
Loop time of 5.48363e-05 on 1 procs for 1 steps with 100 atoms

variable elast equal $e
variable elast equal 17.6927146756926
run 1 pre no post no
Step v_emin v_elast PotEng 
     103   -2.9871562    17.692715    17.692715 
     104   -2.9871562    17.692715    17.631888 
Loop time of 5.50747e-05 on 1 procs for 1 steps with 100 atoms

variable elast equal $e
variable elast equal 17.6318877355844
run 1 pre no post no
Step v_emin v_elast PotEng 
     104   -2.9871562    17.631888    17.631888 
     105   -2.9871562    17.631888    17.595689 
Loop time of 5.38826e-05 on 1 procs for 1 steps with 100 atoms

variable elast equal $e
variable elast equal 17.5956887276207
run 1 pre no post no
Step v_emin v_elast PotEng 
     105   -2.9871562    17.595689    17.595689 
     106   -2.9871562    17.595689    17.752201 
Loop time of 5.50747e-05 on 1 procs for 1 steps with 100 atoms

run 1 pre no post no
Step v_emin v_elast PotEng 
     106   -2.9871562    17.595689    17.752201 
     107   -2.9871562    17.595689    17.436765 
Loop time of 0.000130892 on 1 procs for 1 steps with 100 atoms

variable elast equal $e
variable elast equal 17.4367653639795
run 1 pre no post no
Step v_emin v_elast PotEng 
     107   -2.9871562    17.436765    17.436765 
     108   -2.9871562    17.436765    17.394495 
Loop time of 5.60284e-05 on 1 procs for 1 steps with 100 atoms

variable elast equal $e
variable elast equal 17.3944947495554
run 1 pre no post no
Step v_emin v_elast PotEng 
     108   -2.9871562    17.394495    17.394495 
     109   -2.9871562    17.394495    17.388909 
Loop time of 5.60284e-05 on 1 procs for 1 steps with 100 atoms

variable elast equal $e
variable elast equal 17.3889089602585
run 1 pre no post no
Step v_emin v_elast PotEng 
     109   -2.9871562    17.388909    17.388909 
     110   -2.9871562    17.388909    17.648157 
Loop time of 5.48363e-05 on 1 procs for 1 steps with 100 atoms

run 1 pre no post no
Step v_emin v_elast PotEng 
     110   -2.9871562    17.388909    17.648157 
     111   -2.9871562    17.388909    17.393237 
Loop time of 5.6982e-05 on 1 procs for 1 steps with 100 atoms

run 1 pre no post no
Step v_emin v_elast PotEng 
     111   -2.9871562    17.388909    17.393237 
     112   -2.9871562    17.388909     16.64723 
Loop time of 5.48363e-05 on 1 procs for 1 steps with 100 atoms

variable elast equal $e
variable elast equal 16.6472298884027
run 1 pre no post no
Step v_emin v_elast PotEng 
     112   -2.9871562     16.64723     16.64723 
     113   -2.9871562     16.64723    16.213922 
Loop time of 5.48363e-05 on 1 procs for 1 steps with 100 atoms

variable elast equal $e
variable elast equal 16.2139216512501
run 1 pre no post no
Step v_emin v_elast PotEng 
     113   -2.9871562    16.213922    16.213922 
     114   -2.9871562    16.213922     16.26792 
Loop time of 5.60284e-05 on 1 procs for 1 steps with 100 atoms

run 1 pre no post no
Step v_emin v_elast PotEng 
     114   -2.9871562    16.213922     16.26792 
     115   -2.9871562    16.213922    16.892948 
Loop time of 5.50747e-05 on 1 procs for 1 steps with 100 atoms

run 1 pre no post no
Step v_emin v_elast PotEng 
     115   -2.9871562    16.213922    16.892948 
     116   -2.9871562    16.213922    16.460371 
Loop time of 5.48363e-05 on 1 procs for 1 steps with 100 atoms

run 1 pre no post no
Step v_emin v_elast PotEng 
     116   -2.9871562    16.213922    16.460371 
     117   -2.9871562    16.213922    16.503289 
Loop time of 5.50747e-05 on 1 procs for 1 steps with 100 atoms

run 1 pre no post no
Step v_emin v_elast PotEng 
     117   -2.9871562    16.213922    16.503289 
     118   -2.9871562    16.213922    16.200409 
Loop time of 5.4121e-05 on 1 procs for 1 steps with 100 atoms

variable elast equal $e
variable elast equal 16.2004085399739
run 1 pre no post no
Step v_emin v_elast PotEng 
     118   -2.9871562    16.200409    16.200409 
     119   -2.9871562    16.200409    16.088637 
Loop time of 5.50747e-05 on 1 procs for 1 steps with 100 atoms

variable elast equal $e
variable elast equal 16.0886374229701
run 1 pre no post no
Step v_emin v_elast PotEng 
     119   -2.9871562    16.088637    16.088637 
     120   -2.9871562    16.088637    16.061001 
Loop time of 5.50747e-05 on 1 procs for 1 steps with 100 atoms

variable elast equal $e
variable elast equal 16.0610013512427
run 1 pre no post no
Step v_emin v_elast PotEng 
     120   -2.9871562    16.061001    16.061001 
     121   -2.9871562    16.061001    16.014818 
Loop time of 5.50747e-05 on 1 procs for 1 steps with 100 atoms

variable elast equal $e
variable elast equal 16.0148180462535
run 1 pre no post no
Step v_emin v_elast PotEng 
     121   -2.9871562    16.014818    16.014818 
     122   -2.9871562    16.014818    15.833909 
Loop time of 5.50747e-05 on 1 procs for 1 steps with 100 atoms

variable elast equal $e
variable elast equal 15.8339086923699
run 1 pre no post no
Step v_emin v_elast PotEng 
     122   -2.9871562    15.833909    15.833909 
     123   -2.9871562    15.833909    15.901769 
Loop time of 5.50747e-05 on 1 procs for 1 steps with 100 atoms

run 1 pre no post no
Step v_emin v_elast PotEng 
     123   -2.9871562    15.833909    15.901769 
     124   -2.9871562    15.833909    15.859369 
Loop time of 5.38826e-05 on 1 procs for 1 steps with 100 atoms

run 1 pre no post no
Step v_emin v_elast PotEng 
     124   -2.9871562    15.833909    15.859369 
     125   -2.9871562    15.833909    15.828941 
Loop time of 5.38826e-05 on 1 procs for 1 steps with 100 atoms

variable elast equal $e
variable elast equal 15.8289410721019
run 1 pre no post no
Step v_emin v_elast PotEng 
     125   -2.9871562    15.828941    15.828941 
     126   -2.9871562    15.828941    15.796522 
Loop time of 5.50747e-05 on 1 procs for 1 steps with 100 atoms

variable elast equal $e
variable elast equal 15.7965216744532
run 1 pre no post no
Step v_emin v_elast PotEng 
     126   -2.9871562    15.796522    15.796522 
     127   -2.9871562    15.796522    15.900131 
Loop time of 5.4121e-05 on 1 procs for 1 steps with 100 atoms

run 1 pre no post no
Step v_emin v_elast PotEng 
     127   -2.9871562    15.796522    15.900131 
     128   -2.9871562    15.796522    16.176197 
Loop time of 5.50747e-05 on 1 procs for 1 steps with 100 atoms

run 1 pre no post no
Step v_emin v_elast PotEng 
     128   -2.9871562    15.796522    16.176197 
     129   -2.9871562    15.796522    15.574135 
Loop time of 5.48363e-05 on 1 procs for 1 steps with 100 atoms

variable elast equal $e
variable elast equal 15.5741349992394
run 1 pre no post no
Step v_emin v_elast PotEng 
     129   -2.9871562    15.574135    15.574135 
     130   -2.9871562    15.574135    15.595114 
Loop time of 5.57899e-05 on 1 procs for 1 steps with 100 atoms

run 1 pre no post no
Step v_emin v_elast PotEng 
     130   -2.9871562    15.574135    15.595114 
     131   -2.9871562    15.574135    15.594206 
Loop time of 5.4121e-05 on 1 procs for 1 steps with 100 atoms

run 1 pre no post no
Step v_emin v_elast PotEng 
     131   -2.9871562    15.574135    15.594206 
     132   -2.9871562    15.574135    15.575686 
Loop time of 5.50747e-05 on 1 procs for 1 steps with 100 atoms

run 1 pre no post no
Step v_emin v_elast PotEng 
     132   -2.9871562    15.574135    15.575686 
     133   -2.9871562    15.574135    15.636739 
Loop time of 5.50747e-05 on 1 procs for 1 steps with 100 atoms

run 1 pre no post no
Step v_emin v_elast PotEng 
     133   -2.9871562    15.574135    15.636739 
     134   -2.9871562    15.574135    15.526824 
Loop time of 5.48363e-05 on 1 procs for 1 steps with 100 atoms

variable elast equal $e
variable elast equal 15.5268241946401
run 1 pre no post no
Step v_emin v_elast PotEng 
     134   -2.9871562    15.526824    15.526824 
     135   -2.9871562    15.526824    15.564872 
Loop time of 5.50747e-05 on 1 procs for 1 steps with 100 atoms

run 1 pre no post no
Step v_emin v_elast PotEng 
     135   -2.9871562    15.526824    15.564872 
     136   -2.9871562    15.526824     15.50252 
Loop time of 5.50747e-05 on 1 procs for 1 steps with 100 atoms

variable elast equal $e
variable elast equal 15.5025202512951
run 1 pre no post no
Step v_emin v_elast PotEng 
     136   -2.9871562     15.50252     15.50252 
     137   -2.9871562     15.50252    15.543509 
Loop time of 5.50747e-05 on 1 procs for 1 steps with 100 atoms

run 1 pre no post no
Step v_emin v_elast PotEng 
     137   -2.9871562     15.50252    15.543509 
     138   -2.9871562     15.50252    15.469811 
Loop time of 5.48363e-05 on 1 procs for 1 steps with 100 atoms

variable elast equal $e
variable elast equal 15.4698112262665
run 1 pre no post no
Step v_emin v_elast PotEng 
     138   -2.9871562    15.469811    15.469811 
     139   -2.9871562    15.469811    16.717052 
Loop time of 5.48363e-05 on 1 procs for 1 steps with 100 atoms

run 1 pre no post no
Step v_emin v_elast PotEng 
     139   -2.9871562    15.469811    16.717052 
     140   -2.9871562    15.469811    14.665331 
Loop time of 5.48363e-05 on 1 procs for 1 steps with 100 atoms

variable elast equal $e
variable elast equal 14.6653305587764
run 1 pre no post no
Step v_emin v_elast PotEng 
     140   -2.9871562    14.665331    14.665331 
     141   -2.9871562    14.665331    14.729674 
Loop time of 5.50747e-05 on 1 procs for 1 steps with 100 atoms

run 1 pre no post no
Step v_emin v_elast PotEng 
     141   -2.9871562    14.665331    14.729674 
     142   -2.9871562    14.665331    14.709226 
Loop time of 5.48363e-05 on 1 procs for 1 steps with 100 atoms

run 1 pre no post no
Step v_emin v_elast PotEng 
     142   -2.9871562    14.665331    14.709226 
     143   -2.9871562    14.665331    14.664483 
Loop time of 5.48363e-05 on 1 procs for 1 steps with 100 atoms

variable elast equal $e
variable elast equal 14.6644833221738
run 1 pre no post no
Step v_emin v_elast PotEng 
     143   -2.9871562    14.664483    14.664483 
     144   -2.9871562    14.664483    14.646536 
Loop time of 5.50747e-05 on 1 procs for 1 steps with 100 atoms

variable elast equal $e
variable elast equal 14.6465356338364
run 1 pre no post no
Step v_emin v_elast PotEng 
     144   -2.9871562    14.646536    14.646536 
     145   -2.9871562    14.646536    14.935251 
Loop time of 7.20024e-05 on 1 procs for 1 steps with 100 atoms

run 1 pre no post no
Step v_emin v_elast PotEng 
     145   -2.9871562    14.646536    14.935251 
     146   -2.9871562    14.646536    14.693342 
Loop time of 5.38826e-05 on 1 procs for 1 steps with 100 atoms

run 1 pre no post no
Step v_emin v_elast PotEng 
     146   -2.9871562    14.646536    14.693342 
     147   -2.9871562    14.646536    14.743306 
Loop time of 5.48363e-05 on 1 procs for 1 steps with 100 atoms

run 1 pre no post no
Step v_emin v_elast PotEng 
     147   -2.9871562    14.646536    14.743306 
     148   -2.9871562    14.646536    14.650066 
Loop time of 5.38826e-05 on 1 procs for 1 steps with 100 atoms

run 1 pre no post no
Step v_emin v_elast PotEng 
     148   -2.9871562    14.646536    14.650066 
     149   -2.9871562    14.646536    14.606123 
Loop time of 5.50747e-05 on 1 procs for 1 steps with 100 atoms

variable elast equal $e
variable elast equal 14.6061225703956
run 1 pre no post no
Step v_emin v_elast PotEng 
     149   -2.9871562    14.606123    14.606123 
     150   -2.9871562    14.606123    15.121558 
Loop time of 5.50747e-05 on 1 procs for 1 steps with 100 atoms

run 1 pre no post no
Step v_emin v_elast PotEng 
     150   -2.9871562    14.606123    15.121558 
     151   -2.9871562    14.606123    14.599206 
Loop time of 5.48363e-05 on 1 procs for 1 steps with 100 atoms

variable elast equal $e
variable elast equal 14.5992061026431
run 1 pre no post no
Step v_emin v_elast PotEng 
     151   -2.9871562    14.599206    14.599206 
     152   -2.9871562    14.599206    14.582926 
Loop time of 5.4121e-05 on 1 procs for 1 steps with 100 atoms

variable elast equal $e
variable elast equal 14.5829257813291
run 1 pre no post no
Step v_emin v_elast PotEng 
     152   -2.9871562    14.582926    14.582926 
     153   -2.9871562    14.582926    15.758138 
Loop time of 6.98566e-05 on 1 procs for 1 steps with 100 atoms

run 1 pre no post no
Step v_emin v_elast PotEng 
     153   -2.9871562    14.582926    15.758138 
     154   -2.9871562    14.582926    14.584133 
Loop time of 5.48363e-05 on 1 procs for 1 steps with 100 atoms

run 1 pre no post no
Step v_emin v_elast PotEng 
     154   -2.9871562    14.582926    14.584133 
     155   -2.9871562    14.582926    14.588675 
Loop time of 5.48363e-05 on 1 procs for 1 steps with 100 atoms

run 1 pre no post no
Step v_emin v_elast PotEng 
     155   -2.9871562    14.582926    14.588675 
     156   -2.9871562    14.582926    14.423154 
Loop time of 5.38826e-05 on 1 procs for 1 steps with 100 atoms

variable elast equal $e
variable elast equal 14.4231541013949
run 1 pre no post no
Step v_emin v_elast PotEng 
     156   -2.9871562    14.423154    14.423154 
     157   -2.9871562    14.423154    14.359718 
Loop time of 5.50747e-05 on 1 procs for 1 steps with 100 atoms

variable elast equal $e
variable elast equal 14.3597176282861
run 1 pre no post no
Step v_emin v_elast PotEng 
     157   -2.9871562    14.359718    14.359718 
     158   -2.9871562    14.359718    14.337874 
Loop time of 0.000110865 on 1 procs for 1 steps with 100 atoms

variable elast equal $e
variable elast equal 14.337873724148
run 1 pre no post no
Step v_emin v_elast PotEng 
     158   -2.9871562    14.337874    14.337874 
     159   -2.9871562    14.337874     14.32227 
Loop time of 5.60284e-05 on 1 procs for 1 steps with 100 atoms

variable elast equal $e
variable elast equal 14.322270094069
run 1 pre no post no
Step v_emin v_elast PotEng 
     159   -2.9871562     14.32227     14.32227 
     160   -2.9871562     14.32227    14.344426 
Loop time of 5.48363e-05 on 1 procs for 1 steps with 100 atoms

run 1 pre no post no
Step v_emin v_elast PotEng 
     160   -2.9871562     14.32227    14.344426 
     161   -2.9871562     14.32227    14.206806 
Loop time of 5.50747e-05 on 1 procs for 1 steps with 100 atoms

variable elast equal $e
variable elast equal 14.2068064730488
run 1 pre no post no
Step v_emin v_elast PotEng 
     161   -2.9871562    14.206806    14.206806 
     162   -2.9871562    14.206806    14.194619 
Loop time of 5.60284e-05 on 1 procs for 1 steps with 100 atoms

variable elast equal $e
variable elast equal 14.1946185437717
run 1 pre no post no
Step v_emin v_elast PotEng 
     162   -2.9871562    14.194619    14.194619 
     163   -2.9871562    14.194619    13.896707 
Loop time of 5.50747e-05 on 1 procs for 1 steps with 100 atoms

variable elast equal $e
variable elast equal 13.8967068778501
run 1 pre no post no
Step v_emin v_elast PotEng 
     163   -2.9871562    13.896707    13.896707 
     164   -2.9871562    13.896707    13.933203 
Loop time of 5.50747e-05 on 1 procs for 1 steps with 100 atoms

run 1 pre no post no
Step v_emin v_elast PotEng 
     164   -2.9871562    13.896707    13.933203 
     165   -2.9871562    13.896707    13.884772 
Loop time of 5.50747e-05 on 1 procs for 1 steps with 100 atoms

variable elast equal $e
variable elast equal 13.8847717483343
run 1 pre no post no
Step v_emin v_elast PotEng 
     165   -2.9871562    13.884772    13.884772 
     166   -2.9871562    13.884772    14.192279 
Loop time of 5.48363e-05 on 1 procs for 1 steps with 100 atoms

run 1 pre no post no
Step v_emin v_elast PotEng 
     166   -2.9871562    13.884772    14.192279 
     167   -2.9871562    13.884772     13.90311 
Loop time of 5.50747e-05 on 1 procs for 1 steps with 100 atoms

run 1 pre no post no
Step v_emin v_elast PotEng 
     167   -2.9871562    13.884772     13.90311 
     168   -2.9871562    13.884772    15.006862 
Loop time of 7.20024e-05 on 1 procs for 1 steps with 100 atoms

run 1 pre no post no
Step v_emin v_elast PotEng 
     168   -2.9871562    13.884772    15.006862 
     169   -2.9871562    13.884772    14.051284 
Loop time of 5.48363e-05 on 1 procs for 1 steps with 100 atoms

run 1 pre no post no
Step v_emin v_elast PotEng 
     169   -2.9871562    13.884772    14.051284 
     170   -2.9871562    13.884772    13.863119 
Loop time of 5.48363e-05 on 1 procs for 1 steps with 100 atoms

variable elast equal $e
variable elast equal 13.8631188326398
run 1 pre no post no
Step v_emin v_elast PotEng 
     170   -2.9871562    13.863119    13.863119 
     171   -2.9871562    13.863119    13.897229 
Loop time of 5.50747e-05 on 1 procs for 1 steps with 100 atoms

run 1 pre no post no
Step v_emin v_elast PotEng 
     171   -2.9871562    13.863119    13.897229 
     172   -2.9871562    13.863119     14.15461 
Loop time of 5.4121e-05 on 1 procs for 1 steps with 100 atoms

run 1 pre no post no
Step v_emin v_elast PotEng 
     172   -2.9871562    13.863119     14.15461 
     173   -2.9871562    13.863119    13.747936 
Loop time of 5.50747e-05 on 1 procs for 1 steps with 100 atoms

variable elast equal $e
variable elast equal 13.7479358468865
run 1 pre no post no
Step v_emin v_elast PotEng 
     173   -2.9871562    13.747936    13.747936 
     174   -2.9871562    13.747936    13.944261 
Loop time of 5.50747e-05 on 1 procs for 1 steps with 100 atoms

run 1 pre no post no
Step v_emin v_elast PotEng 
     174   -2.9871562    13.747936    13.944261 
     175   -2.9871562    13.747936    13.856603 
Loop time of 5.50747e-05 on 1 procs for 1 steps with 100 atoms

run 1 pre no post no
Step v_emin v_elast PotEng 
     175   -2.9871562    13.747936    13.856603 
     176   -2.9871562    13.747936    13.754982 
Loop time of 7.10487e-05 on 1 procs for 1 steps with 100 atoms

run 1 pre no post no
Step v_emin v_elast PotEng 
     176   -2.9871562    13.747936    13.754982 
     177   -2.9871562    13.747936    13.791133 
Loop time of 5.50747e-05 on 1 procs for 1 steps with 100 atoms

run 1 pre no post no
Step v_emin v_elast PotEng 
     177   -2.9871562    13.747936    13.791133 
     178   -2.9871562    13.747936    13.743151 
Loop time of 5.48363e-05 on 1 procs for 1 steps with 100 atoms

variable elast equal $e
variable elast equal 13.7431512145714
run 1 pre no post no
Step v_emin v_elast PotEng 
     178   -2.9871562    13.743151    13.743151 
     179   -2.9871562    13.743151    13.730891 
Loop time of 5.50747e-05 on 1 procs for 1 steps with 100 atoms

variable elast equal $e
variable elast equal 13.7308908224898
run 1 pre no post no
Step v_emin v_elast PotEng 
     179   -2.9871562    13.730891    13.730891 
     180   -2.9871562    13.730891    13.836597 
Loop time of 5.50747e-05 on 1 procs for 1 steps with 100 atoms

run 1 pre no post no
Step v_emin v_elast PotEng 
     180   -2.9871562    13.730891    13.836597 
     181   -2.9871562    13.730891    13.762638 
Loop time of 5.48363e-05 on 1 procs for 1 steps with 100 atoms

run 1 pre no post no
Step v_emin v_elast PotEng 
     181   -2.9871562    13.730891    13.762638 
     182   -2.9871562    13.730891    13.744395 
Loop time of 5.38826e-05 on 1 procs for 1 steps with 100 atoms

run 1 pre no post no
Step v_emin v_elast PotEng 
     182   -2.9871562    13.730891    13.744395 
     183   -2.9871562    13.730891     13.72357 
Loop time of 5.48363e-05 on 1 procs for 1 steps with 100 atoms

variable elast equal $e
variable elast equal 13.7235702740415
run 1 pre no post no
Step v_emin v_elast PotEng 
     183   -2.9871562     13.72357     13.72357 
     184   -2.9871562     13.72357    12.989957 
Loop time of 7.51019e-05 on 1 procs for 1 steps with 100 atoms

variable elast equal $e
variable elast equal 12.9899570290316
run 1 pre no post no
Step v_emin v_elast PotEng 
     184   -2.9871562    12.989957    12.989957 
     185   -2.9871562    12.989957    12.998729 
Loop time of 5.50747e-05 on 1 procs for 1 steps with 100 atoms

run 1 pre no post no
Step v_emin v_elast PotEng 
     185   -2.9871562    12.989957    12.998729 
     186   -2.9871562    12.989957    12.898021 
Loop time of 5.50747e-05 on 1 procs for 1 steps with 100 atoms

variable elast equal $e
variable elast equal 12.8980208801066
run 1 pre no post no
Step v_emin v_elast PotEng 
     186   -2.9871562    12.898021    12.898021 
     187   -2.9871562    12.898021    12.853391 
Loop time of 5.60284e-05 on 1 procs for 1 steps with 100 atoms

variable elast equal $e
variable elast equal 12.8533905075633
run 1 pre no post no
Step v_emin v_elast PotEng 
     187   -2.9871562    12.853391    12.853391 
     188   -2.9871562    12.853391    12.879321 
Loop time of 5.50747e-05 on 1 procs for 1 steps with 100 atoms

run 1 pre no post no
Step v_emin v_elast PotEng 
     188   -2.9871562    12.853391    12.879321 
     189   -2.9871562    12.853391    12.921541 
Loop time of 5.50747e-05 on 1 procs for 1 steps with 100 atoms

run 1 pre no post no
Step v_emin v_elast PotEng 
     189   -2.9871562    12.853391    12.921541 
     190   -2.9871562    12.853391    12.871672 
Loop time of 5.50747e-05 on 1 procs for 1 steps with 100 atoms

run 1 pre no post no
Step v_emin v_elast PotEng 
     190   -2.9871562    12.853391    12.871672 
     191   -2.9871562    12.853391    12.370971 
Loop time of 5.50747e-05 on 1 procs for 1 steps with 100 atoms

variable elast equal $e
variable elast equal 12.3709712715421
run 1 pre no post no
Step v_emin v_elast PotEng 
     191   -2.9871562    12.370971    12.370971 
     192   -2.9871562    12.370971    12.789875 
Loop time of 5.48363e-05 on 1 procs for 1 steps with 100 atoms

run 1 pre no post no
Step v_emin v_elast PotEng 
     192   -2.9871562    12.370971    12.789875 
     193   -2.9871562    12.370971    12.367863 
Loop time of 5.88894e-05 on 1 procs for 1 steps with 100 atoms

variable elast equal $e
variable elast equal 12.3678629550963
run 1 pre no post no
Step v_emin v_elast PotEng 
     193   -2.9871562    12.367863    12.367863 
     194   -2.9871562    12.367863    12.296345 
Loop time of 5.48363e-05 on 1 procs for 1 steps with 100 atoms

variable elast equal $e
variable elast equal 12.2963450800415
run 1 pre no post no
Step v_emin v_elast PotEng 
     194   -2.9871562    12.296345    12.296345 
     195   -2.9871562    12.296345    12.087837 
Loop time of 5.60284e-05 on 1 procs for 1 steps with 100 atoms

variable elast equal $e
variable elast equal 12.0878369165867
run 1 pre no post no
Step v_emin v_elast PotEng 
     195   -2.9871562    12.087837    12.087837 
     196   -2.9871562    12.087837     11.98961 
Loop time of 5.48363e-05 on 1 procs for 1 steps with 100 atoms

variable elast equal $e
variable elast equal 11.9896097114986
run 1 pre no post no
Step v_emin v_elast PotEng 
     196   -2.9871562     11.98961     11.98961 
     197   -2.9871562     11.98961    12.064311 
Loop time of 5.50747e-05 on 1 procs for 1 steps with 100 atoms

run 1 pre no post no
Step v_emin v_elast PotEng 
     197   -2.9871562     11.98961    12.064311 
     198   -2.9871562     11.98961    11.823534 
Loop time of 5.48363e-05 on 1 procs for 1 steps with 100 atoms

variable elast equal $e
variable elast equal 11.8235344307738
run 1 pre no post no
Step v_emin v_elast PotEng 
     198   -2.9871562    11.823534    11.823534 
     199   -2.9871562    11.823534    11.889233 
Loop time of 5.50747e-05 on 1 procs for 1 steps with 100 atoms

run 1 pre no post no
Step v_emin v_elast PotEng 
     199   -2.9871562    11.823534    11.889233 
     200   -2.9871562    11.823534    11.858711 
Loop time of 5.38826e-05 on 1 procs for 1 steps with 100 atoms

run 1 pre no post no
Step v_emin v_elast PotEng 
     200   -2.9871562    11.823534    11.858711 
     201   -2.9871562    11.823534    11.802346 
Loop time of 5.50747e-05 on 1 procs for 1 steps with 100 atoms

variable elast equal $e
variable elast equal 11.8023456094225
run 1 pre no post no
Step v_emin v_elast PotEng 
     201   -2.9871562    11.802346    11.802346 
     202   -2.9871562    11.802346    14.583692 
Loop time of 5.38826e-05 on 1 procs for 1 steps with 100 atoms

run 1 pre no post no
Step v_emin v_elast PotEng 
     202   -2.9871562    11.802346    14.583692 
     203   -2.9871562    11.802346    11.809959 
Loop time of 5.38826e-05 on 1 procs for 1 steps with 100 atoms

run 1 pre no post no
Step v_emin v_elast PotEng 
     203   -2.9871562    11.802346    11.809959 
     204   -2.9871562    11.802346    11.784763 
Loop time of 5.38826e-05 on 1 procs for 1 steps with 100 atoms

variable elast equal $e
variable elast equal 11.7847629049685
run 1 pre no post no
Step v_emin v_elast PotEng 
     204   -2.9871562    11.784763    11.784763 
     205   -2.9871562    11.784763    11.782326 
Loop time of 5.4121e-05 on 1 procs for 1 steps with 100 atoms

variable elast equal $e
variable elast equal 11.7823263952965
run 1 pre no post no
Step v_emin v_elast PotEng 
     205   -2.9871562    11.782326    11.782326 
     206   -2.9871562    11.782326    11.795061 
Loop time of 5.38826e-05 on 1 procs for 1 steps with 100 atoms

run 1 pre no post no
Step v_emin v_elast PotEng 
     206   -2.9871562    11.782326    11.795061 
     207   -2.9871562    11.782326     11.84016 
Loop time of 5.60284e-05 on 1 procs for 1 steps with 100 atoms

run 1 pre no post no
Step v_emin v_elast PotEng 
     207   -2.9871562    11.782326     11.84016 
     208   -2.9871562    11.782326    11.793727 
Loop time of 5.50747e-05 on 1 procs for 1 steps with 100 atoms

run 1 pre no post no
Step v_emin v_elast PotEng 
     208   -2.9871562    11.782326    11.793727 
     209   -2.9871562    11.782326    11.685588 
Loop time of 5.48363e-05 on 1 procs for 1 steps with 100 atoms

variable elast equal $e
variable elast equal 11.6855876172293
run 1 pre no post no
Step v_emin v_elast PotEng 
     209   -2.9871562    11.685588    11.685588 
     210   -2.9871562    11.685588    11.682427 
Loop time of 5.50747e-05 on 1 procs for 1 steps with 100 atoms

variable elast equal $e
variable elast equal 11.6824265849374
run 1 pre no post no
Step v_emin v_elast PotEng 
     210   -2.9871562    11.682427    11.682427 
     211   -2.9871562    11.682427    11.514473 
Loop time of 5.38826e-05 on 1 procs for 1 steps with 100 atoms

variable elast equal $e
variable elast equal 11.5144732179108
run 1 pre no post no
Step v_emin v_elast PotEng 
     211   -2.9871562    11.514473    11.514473 
     212   -2.9871562    11.514473    11.571421 
Loop time of 5.50747e-05 on 1 procs for 1 steps with 100 atoms

run 1 pre no post no
Step v_emin v_elast PotEng 
     212   -2.9871562    11.514473    11.571421 
     213   -2.9871562    11.514473     11.50463 
Loop time of 5.50747e-05 on 1 procs for 1 steps with 100 atoms

variable elast equal $e
variable elast equal 11.5046301214653
run 1 pre no post no
Step v_emin v_elast PotEng 
     213   -2.9871562     11.50463     11.50463 
     214   -2.9871562     11.50463    12.153389 
Loop time of 6.8903e-05 on 1 procs for 1 steps with 100 atoms

run 1 pre no post no
Step v_emin v_elast PotEng 
     214   -2.9871562     11.50463    12.153389 
     215   -2.9871562     11.50463    11.566226 
Loop time of 5.50747e-05 on 1 procs for 1 steps with 100 atoms

run 1 pre no post no
Step v_emin v_elast PotEng 
     215   -2.9871562     11.50463    11.566226 
     216   -2.9871562     11.50463    11.650665 
Loop time of 5.48363e-05 on 1 procs for 1 steps with 100 atoms

run 1 pre no post no
Step v_emin v_elast PotEng 
     216   -2.9871562     11.50463    11.650665 
     217   -2.9871562     11.50463    12.036719 
Loop time of 5.48363e-05 on 1 procs for 1 steps with 100 atoms

run 1 pre no post no
Step v_emin v_elast PotEng 
     217   -2.9871562     11.50463    12.036719 
     218   -2.9871562     11.50463    11.543636 
Loop time of 5.38826e-05 on 1 procs for 1 steps with 100 atoms

run 1 pre no post no
Step v_emin v_elast PotEng 
     218   -2.9871562     11.50463    11.543636 
     219   -2.9871562     11.50463    11.530514 
Loop time of 5.38826e-05 on 1 procs for 1 steps with 100 atoms

run 1 pre no post no
Step v_emin v_elast PotEng 
     219   -2.9871562     11.50463    11.530514 
     220   -2.9871562     11.50463    11.545367 
Loop time of 5.48363e-05 on 1 procs for 1 steps with 100 atoms

run 1 pre no post no
Step v_emin v_elast PotEng 
     220   -2.9871562     11.50463    11.545367 
     221   -2.9871562     11.50463    11.538967 
Loop time of 5.38826e-05 on 1 procs for 1 steps with 100 atoms

run 1 pre no post no
Step v_emin v_elast PotEng 
     221   -2.9871562     11.50463    11.538967 
     222   -2.9871562     11.50463    11.562526 
Loop time of 5.38826e-05 on 1 procs for 1 steps with 100 atoms

run 1 pre no post no
Step v_emin v_elast PotEng 
     222   -2.9871562     11.50463    11.562526 
     223   -2.9871562     11.50463     11.76457 
Loop time of 5.48363e-05 on 1 procs for 1 steps with 100 atoms

run 1 pre no post no
Step v_emin v_elast PotEng 
     223   -2.9871562     11.50463     11.76457 
     224   -2.9871562     11.50463     11.51246 
Loop time of 5.50747e-05 on 1 procs for 1 steps with 100 atoms

run 1 pre no post no
Step v_emin v_elast PotEng 
     224   -2.9871562     11.50463     11.51246 
     225   -2.9871562     11.50463    11.423006 
Loop time of 5.4121e-05 on 1 procs for 1 steps with 100 atoms

variable elast equal $e
variable elast equal 11.4230057091888
run 1 pre no post no
Step v_emin v_elast PotEng 
     225   -2.9871562    11.423006    11.423006 
     226   -2.9871562    11.423006    11.501038 
Loop time of 5.38826e-05 on 1 procs for 1 steps with 100 atoms

run 1 pre no post no
Step v_emin v_elast PotEng 
     226   -2.9871562    11.423006    11.501038 
     227   -2.9871562    11.423006     11.46665 
Loop time of 5.48363e-05 on 1 procs for 1 steps with 100 atoms

run 1 pre no post no
Step v_emin v_elast PotEng 
     227   -2.9871562    11.423006     11.46665 
     228   -2.9871562    11.423006    11.357505 
Loop time of 5.50747e-05 on 1 procs for 1 steps with 100 atoms

variable elast equal $e
variable elast equal 11.3575045094208
run 1 pre no post no
Step v_emin v_elast PotEng 
     228   -2.9871562    11.357505    11.357505 
     229   -2.9871562    11.357505    11.378776 
Loop time of 5.38826e-05 on 1 procs for 1 steps with 100 atoms

run 1 pre no post no
Step v_emin v_elast PotEng 
     229   -2.9871562    11.357505    11.378776 
     230   -2.9871562    11.357505    11.352506 
Loop time of 5.50747e-05 on 1 procs for 1 steps with 100 atoms

variable elast equal $e
variable elast equal 11.3525063242927
run 1 pre no post no
Step v_emin v_elast PotEng 
     230   -2.9871562    11.352506    11.352506 
     231   -2.9871562    11.352506    11.356353 
Loop time of 5.50747e-05 on 1 procs for 1 steps with 100 atoms

run 1 pre no post no
Step v_emin v_elast PotEng 
     231   -2.9871562    11.352506    11.356353 
     232   -2.9871562    11.352506    11.362516 
Loop time of 5.38826e-05 on 1 procs for 1 steps with 100 atoms

run 1 pre no post no
Step v_emin v_elast PotEng 
     232   -2.9871562    11.352506    11.362516 
     233   -2.9871562    11.352506     11.30987 
Loop time of 5.4121e-05 on 1 procs for 1 steps with 100 atoms

variable elast equal $e
variable elast equal 11.3098701620147
run 1 pre no post no
Step v_emin v_elast PotEng 
     233   -2.9871562     11.30987     11.30987 
     234   -2.9871562     11.30987    11.346911 
Loop time of 5.50747e-05 on 1 procs for 1 steps with 100 atoms

run 1 pre no post no
Step v_emin v_elast PotEng 
     234   -2.9871562     11.30987    11.346911 
     235   -2.9871562     11.30987    11.393086 
Loop time of 0.000114202 on 1 procs for 1 steps with 100 atoms

run 1 pre no post no
Step v_emin v_elast PotEng 
     235   -2.9871562     11.30987    11.393086 
     236   -2.9871562     11.30987    11.348552 
Loop time of 0.000108957 on 1 procs for 1 steps with 100 atoms

run 1 pre no post no
Step v_emin v_elast PotEng 
     236   -2.9871562     11.30987    11.348552 
     237   -2.9871562     11.30987    11.277704 
Loop time of 5.57899e-05 on 1 procs for 1 steps with 100 atoms

variable elast equal $e
variable elast equal 11.2777039270065
run 1 pre no post no
Step v_emin v_elast PotEng 
     237   -2.9871562    11.277704    11.277704 
     238   -2.9871562    11.277704    12.219595 
Loop time of 5.6982e-05 on 1 procs for 1 steps with 100 atoms

run 1 pre no post no
Step v_emin v_elast PotEng 
     238   -2.9871562    11.277704    12.219595 
     239   -2.9871562    11.277704    11.626893 
Loop time of 5.57899e-05 on 1 procs for 1 steps with 100 atoms

run 1 pre no post no
Step v_emin v_elast PotEng 
     239   -2.9871562    11.277704    11.626893 
     240   -2.9871562    11.277704    11.285654 
Loop time of 5.60284e-05 on 1 procs for 1 steps with 100 atoms

run 1 pre no post no
Step v_emin v_elast PotEng 
     240   -2.9871562    11.277704    11.285654 
     241   -2.9871562    11.277704    11.547108 
Loop time of 5.50747e-05 on 1 procs for 1 steps with 100 atoms

run 1 pre no post no
Step v_emin v_elast PotEng 
     241   -2.9871562    11.277704    11.547108 
     242   -2.9871562    11.277704    11.285732 
Loop time of 5.48363e-05 on 1 procs for 1 steps with 100 atoms

run 1 pre no post no
Step v_emin v_elast PotEng 
     242   -2.9871562    11.277704    11.285732 
     243   -2.9871562    11.277704    11.405797 
Loop time of 5.48363e-05 on 1 procs for 1 steps with 100 atoms

run 1 pre no post no
Step v_emin v_elast PotEng 
     243   -2.9871562    11.277704    11.405797 
     244   -2.9871562    11.277704    11.400129 
Loop time of 5.50747e-05 on 1 procs for 1 steps with 100 atoms

run 1 pre no post no
Step v_emin v_elast PotEng 
     244   -2.9871562    11.277704    11.400129 
     245   -2.9871562    11.277704    11.287396 
Loop time of 5.4121e-05 on 1 procs for 1 steps with 100 atoms

run 1 pre no post no
Step v_emin v_elast PotEng 
     245   -2.9871562    11.277704    11.287396 
     246   -2.9871562    11.277704    11.316525 
Loop time of 5.60284e-05 on 1 procs for 1 steps with 100 atoms

run 1 pre no post no
Step v_emin v_elast PotEng 
     246   -2.9871562    11.277704    11.316525 
     247   -2.9871562    11.277704     11.25266 
Loop time of 5.50747e-05 on 1 procs for 1 steps with 100 atoms

variable elast equal $e
variable elast equal 11.2526595322287
run 1 pre no post no
Step v_emin v_elast PotEng 
     247   -2.9871562     11.25266     11.25266 
     248   -2.9871562     11.25266    11.394849 
Loop time of 5.48363e-05 on 1 procs for 1 steps with 100 atoms

run 1 pre no post no
Step v_emin v_elast PotEng 
     248   -2.9871562     11.25266    11.394849 
     249   -2.9871562     11.25266    11.326221 
Loop time of 5.50747e-05 on 1 procs for 1 steps with 100 atoms

run 1 pre no post no
Step v_emin v_elast PotEng 
     249   -2.9871562     11.25266    11.326221 
     250   -2.9871562     11.25266    11.228697 
Loop time of 5.4121e-05 on 1 procs for 1 steps with 100 atoms

variable elast equal $e
variable elast equal 11.2286969602071
run 1 pre no post no
Step v_emin v_elast PotEng 
     250   -2.9871562    11.228697    11.228697 
     251   -2.9871562    11.228697    17.042561 
Loop time of 5.38826e-05 on 1 procs for 1 steps with 100 atoms

run 1 pre no post no
Step v_emin v_elast PotEng 
     251   -2.9871562    11.228697    17.042561 
     252   -2.9871562    11.228697    11.232474 
Loop time of 5.38826e-05 on 1 procs for 1 steps with 100 atoms

run 1 pre no post no
Step v_emin v_elast PotEng 
     252   -2.9871562    11.228697    11.232474 
     253   -2.9871562    11.228697    11.156657 
Loop time of 5.60284e-05 on 1 procs for 1 steps with 100 atoms

variable elast equal $e
variable elast equal 11.1566565454043
run 1 pre no post no
Step v_emin v_elast PotEng 
     253   -2.9871562    11.156657    11.156657 
     254   -2.9871562    11.156657    11.164299 
Loop time of 5.4121e-05 on 1 procs for 1 steps with 100 atoms

run 1 pre no post no
Step v_emin v_elast PotEng 
     254   -2.9871562    11.156657    11.164299 
     255   -2.9871562    11.156657    11.165834 
Loop time of 5.38826e-05 on 1 procs for 1 steps with 100 atoms

run 1 pre no post no
Step v_emin v_elast PotEng 
     255   -2.9871562    11.156657    11.165834 
     256   -2.9871562    11.156657    11.140755 
Loop time of 5.50747e-05 on 1 procs for 1 steps with 100 atoms

variable elast equal $e
variable elast equal 11.1407548595371
run 1 pre no post no
Step v_emin v_elast PotEng 
     256   -2.9871562    11.140755    11.140755 
     257   -2.9871562    11.140755    11.146631 
Loop time of 5.50747e-05 on 1 procs for 1 steps with 100 atoms

run 1 pre no post no
Step v_emin v_elast PotEng 
     257   -2.9871562    11.140755    11.146631 
     258   -2.9871562    11.140755    11.146335 
Loop time of 5.50747e-05 on 1 procs for 1 steps with 100 atoms

run 1 pre no post no
Step v_emin v_elast PotEng 
     258   -2.9871562    11.140755    11.146335 
     259   -2.9871562    11.140755     11.15379 
Loop time of 5.48363e-05 on 1 procs for 1 steps with 100 atoms

run 1 pre no post no
Step v_emin v_elast PotEng 
     259   -2.9871562    11.140755     11.15379 
     260   -2.9871562    11.140755     10.97587 
Loop time of 5.48363e-05 on 1 procs for 1 steps with 100 atoms

variable elast equal $e
variable elast equal 10.9758699878521
run 1 pre no post no
Step v_emin v_elast PotEng 
     260   -2.9871562     10.97587     10.97587 
     261   -2.9871562     10.97587    11.165077 
Loop time of 5.50747e-05 on 1 procs for 1 steps with 100 atoms

run 1 pre no post no
Step v_emin v_elast PotEng 
     261   -2.9871562     10.97587    11.165077 
     262   -2.9871562     10.97587    10.978211 
Loop time of 5.50747e-05 on 1 procs for 1 steps with 100 atoms

run 1 pre no post no
Step v_emin v_elast PotEng 
     262   -2.9871562     10.97587    10.978211 
     263   -2.9871562     10.97587    11.232149 
Loop time of 5.48363e-05 on 1 procs for 1 steps with 100 atoms

run 1 pre no post no
Step v_emin v_elast PotEng 
     263   -2.9871562     10.97587    11.232149 
     264   -2.9871562     10.97587    11.105146 
Loop time of 5.50747e-05 on 1 procs for 1 steps with 100 atoms

run 1 pre no post no
Step v_emin v_elast PotEng 
     264   -2.9871562     10.97587    11.105146 
     265   -2.9871562     10.97587    10.979199 
Loop time of 5.50747e-05 on 1 procs for 1 steps with 100 atoms

run 1 pre no post no
Step v_emin v_elast PotEng 
     265   -2.9871562     10.97587    10.979199 
     266   -2.9871562     10.97587    11.010195 
Loop time of 5.4121e-05 on 1 procs for 1 steps with 100 atoms

run 1 pre no post no
Step v_emin v_elast PotEng 
     266   -2.9871562     10.97587    11.010195 
     267   -2.9871562     10.97587    10.908081 
Loop time of 5.50747e-05 on 1 procs for 1 steps with 100 atoms

variable elast equal $e
variable elast equal 10.9080811935625
run 1 pre no post no
Step v_emin v_elast PotEng 
     267   -2.9871562    10.908081    10.908081 
     268   -2.9871562    10.908081    10.932152 
Loop time of 5.38826e-05 on 1 procs for 1 steps with 100 atoms

run 1 pre no post no
Step v_emin v_elast PotEng 
     268   -2.9871562    10.908081    10.932152 
     269   -2.9871562    10.908081    10.896065 
Loop time of 5.38826e-05 on 1 procs for 1 steps with 100 atoms

variable elast equal $e
variable elast equal 10.8960645575897
run 1 pre no post no
Step v_emin v_elast PotEng 
     269   -2.9871562    10.896065    10.896065 
     270   -2.9871562    10.896065     10.98319 
Loop time of 5.50747e-05 on 1 procs for 1 steps with 100 atoms

run 1 pre no post no
Step v_emin v_elast PotEng 
     270   -2.9871562    10.896065     10.98319 
     271   -2.9871562    10.896065    10.971195 
Loop time of 5.48363e-05 on 1 procs for 1 steps with 100 atoms

run 1 pre no post no
Step v_emin v_elast PotEng 
     271   -2.9871562    10.896065    10.971195 
     272   -2.9871562    10.896065    10.985023 
Loop time of 5.50747e-05 on 1 procs for 1 steps with 100 atoms

run 1 pre no post no
Step v_emin v_elast PotEng 
     272   -2.9871562    10.896065    10.985023 
     273   -2.9871562    10.896065    10.900484 
Loop time of 5.50747e-05 on 1 procs for 1 steps with 100 atoms

run 1 pre no post no
Step v_emin v_elast PotEng 
     273   -2.9871562    10.896065    10.900484 
     274   -2.9871562    10.896065    10.929391 
Loop time of 5.4121e-05 on 1 procs for 1 steps with 100 atoms

run 1 pre no post no
Step v_emin v_elast PotEng 
     274   -2.9871562    10.896065    10.929391 
     275   -2.9871562    10.896065    10.887361 
Loop time of 5.50747e-05 on 1 procs for 1 steps with 100 atoms

variable elast equal $e
variable elast equal 10.8873614284687
run 1 pre no post no
Step v_emin v_elast PotEng 
     275   -2.9871562    10.887361    10.887361 
     276   -2.9871562    10.887361    11.227237 
Loop time of 5.38826e-05 on 1 procs for 1 steps with 100 atoms

run 1 pre no post no
Step v_emin v_elast PotEng 
     276   -2.9871562    10.887361    11.227237 
     277   -2.9871562    10.887361    10.945476 
Loop time of 5.48363e-05 on 1 procs for 1 steps with 100 atoms

run 1 pre no post no
Step v_emin v_elast PotEng 
     277   -2.9871562    10.887361    10.945476 
     278   -2.9871562    10.887361    10.754318 
Loop time of 5.50747e-05 on 1 procs for 1 steps with 100 atoms

variable elast equal $e
variable elast equal 10.754317880958
run 1 pre no post no
Step v_emin v_elast PotEng 
     278   -2.9871562    10.754318    10.754318 
     279   -2.9871562    10.754318    10.774683 
Loop time of 5.50747e-05 on 1 procs for 1 steps with 100 atoms

run 1 pre no post no
Step v_emin v_elast PotEng 
     279   -2.9871562    10.754318    10.774683 
     280   -2.9871562    10.754318    10.704987 
Loop time of 5.50747e-05 on 1 procs for 1 steps with 100 atoms

variable elast equal $e
variable elast equal 10.70498746262
run 1 pre no post no
Step v_emin v_elast PotEng 
     280   -2.9871562    10.704987    10.704987 
     281   -2.9871562    10.704987    10.760958 
Loop time of 5.38826e-05 on 1 procs for 1 steps with 100 atoms

run 1 pre no post no
Step v_emin v_elast PotEng 
     281   -2.9871562    10.704987    10.760958 
     282   -2.9871562    10.704987    10.745116 
Loop time of 5.38826e-05 on 1 procs for 1 steps with 100 atoms

run 1 pre no post no
Step v_emin v_elast PotEng 
     282   -2.9871562    10.704987    10.745116 
     283   -2.9871562    10.704987    10.817563 
Loop time of 5.38826e-05 on 1 procs for 1 steps with 100 atoms

run 1 pre no post no
Step v_emin v_elast PotEng 
     283   -2.9871562    10.704987    10.817563 
     284   -2.9871562    10.704987    10.769563 
Loop time of 5.4121e-05 on 1 procs for 1 steps with 100 atoms

run 1 pre no post no
Step v_emin v_elast PotEng 
     284   -2.9871562    10.704987    10.769563 
     285   -2.9871562    10.704987     10.70074 
Loop time of 5.38826e-05 on 1 procs for 1 steps with 100 atoms

variable elast equal $e
variable elast equal 10.7007400473861
run 1 pre no post no
Step v_emin v_elast PotEng 
     285   -2.9871562     10.70074     10.70074 
     286   -2.9871562     10.70074      10.7797 
Loop time of 5.48363e-05 on 1 procs for 1 steps with 100 atoms

run 1 pre no post no
Step v_emin v_elast PotEng 
     286   -2.9871562     10.70074      10.7797 
     287   -2.9871562     10.70074    11.055723 
Loop time of 5.4121e-05 on 1 procs for 1 steps with 100 atoms

run 1 pre no post no
Step v_emin v_elast PotEng 
     287   -2.9871562     10.70074    11.055723 
     288   -2.9871562     10.70074    10.665138 
Loop time of 5.38826e-05 on 1 procs for 1 steps with 100 atoms

variable elast equal $e
variable elast equal 10.6651377469982
run 1 pre no post no
Step v_emin v_elast PotEng 
     288   -2.9871562    10.665138    10.665138 
     289   -2.9871562    10.665138    10.547905 
Loop time of 5.4121e-05 on 1 procs for 1 steps with 100 atoms

variable elast equal $e
variable elast equal 10.5479048070522
run 1 pre no post no
Step v_emin v_elast PotEng 
     289   -2.9871562    10.547905    10.547905 
     290   -2.9871562    10.547905    10.890792 
Loop time of 5.48363e-05 on 1 procs for 1 steps with 100 atoms

run 1 pre no post no
Step v_emin v_elast PotEng 
     290   -2.9871562    10.547905    10.890792 
     291   -2.9871562    10.547905    10.576414 
Loop time of 5.38826e-05 on 1 procs for 1 steps with 100 atoms

run 1 pre no post no
Step v_emin v_elast PotEng 
     291   -2.9871562    10.547905    10.576414 
     292   -2.9871562    10.547905    10.988759 
Loop time of 5.38826e-05 on 1 procs for 1 steps with 100 atoms

run 1 pre no post no
Step v_emin v_elast PotEng 
     292   -2.9871562    10.547905    10.988759 
     293   -2.9871562    10.547905    10.876384 
Loop time of 5.4121e-05 on 1 procs for 1 steps with 100 atoms

run 1 pre no post no
Step v_emin v_elast PotEng 
     293   -2.9871562    10.547905    10.876384 
     294   -2.9871562    10.547905    10.582077 
Loop time of 5.50747e-05 on 1 procs for 1 steps with 100 atoms

run 1 pre no post no
Step v_emin v_elast PotEng 
     294   -2.9871562    10.547905    10.582077 
     295   -2.9871562    10.547905    10.577384 
Loop time of 5.50747e-05 on 1 procs for 1 steps with 100 atoms

run 1 pre no post no
Step v_emin v_elast PotEng 
     295   -2.9871562    10.547905    10.577384 
     296   -2.9871562    10.547905    10.558342 
Loop time of 5.50747e-05 on 1 procs for 1 steps with 100 atoms

run 1 pre no post no
Step v_emin v_elast PotEng 
     296   -2.9871562    10.547905    10.558342 
     297   -2.9871562    10.547905    10.592142 
Loop time of 5.38826e-05 on 1 procs for 1 steps with 100 atoms

run 1 pre no post no
Step v_emin v_elast PotEng 
     297   -2.9871562    10.547905    10.592142 
     298   -2.9871562    10.547905     10.60582 
Loop time of 5.38826e-05 on 1 procs for 1 steps with 100 atoms

run 1 pre no post no
Step v_emin v_elast PotEng 
     298   -2.9871562    10.547905     10.60582 
     299   -2.9871562    10.547905    10.685323 
Loop time of 5.4121e-05 on 1 procs for 1 steps with 100 atoms

run 1 pre no post no
Step v_emin v_elast PotEng 
     299   -2.9871562    10.547905    10.685323 
     300   -2.9871562    10.547905    10.567084 
Loop time of 5.50747e-05 on 1 procs for 1 steps with 100 atoms

run 1 pre no post no
Step v_emin v_elast PotEng 
     300   -2.9871562    10.547905    10.567084 
     301   -2.9871562    10.547905    10.554928 
Loop time of 5.38826e-05 on 1 procs for 1 steps with 100 atoms

run 1 pre no post no
Step v_emin v_elast PotEng 
     301   -2.9871562    10.547905    10.554928 
     302   -2.9871562    10.547905    10.505704 
Loop time of 5.50747e-05 on 1 procs for 1 steps with 100 atoms

variable elast equal $e
variable elast equal 10.5057035665514
run 1 pre no post no
Step v_emin v_elast PotEng 
     302   -2.9871562    10.505704    10.505704 
     303   -2.9871562    10.505704     10.55388 
Loop time of 5.50747e-05 on 1 procs for 1 steps with 100 atoms

run 1 pre no post no
Step v_emin v_elast PotEng 
     303   -2.9871562    10.505704     10.55388 
     304   -2.9871562    10.505704    10.515969 
Loop time of 5.50747e-05 on 1 procs for 1 steps with 100 atoms

run 1 pre no post no
Step v_emin v_elast PotEng 
     304   -2.9871562    10.505704    10.515969 
     305   -2.9871562    10.505704    10.649331 
Loop time of 5.4121e-05 on 1 procs for 1 steps with 100 atoms

run 1 pre no post no
Step v_emin v_elast PotEng 
     305   -2.9871562    10.505704    10.649331 
     306   -2.9871562    10.505704    10.538657 
Loop time of 0.000111103 on 1 procs for 1 steps with 100 atoms

run 1 pre no post no
Step v_emin v_elast PotEng 
     306   -2.9871562    10.505704    10.538657 
     307   -2.9871562    10.505704    10.570003 
Loop time of 5.48363e-05 on 1 procs for 1 steps with 100 atoms

run 1 pre no post no
Step v_emin v_elast PotEng 
     307   -2.9871562    10.505704    10.570003 
     308   -2.9871562    10.505704    10.447325 
Loop time of 5.50747e-05 on 1 procs for 1 steps with 100 atoms

variable elast equal $e
variable elast equal 10.4473248542794
run 1 pre no post no
Step v_emin v_elast PotEng 
     308   -2.9871562    10.447325    10.447325 
     309   -2.9871562    10.447325    10.448599 
Loop time of 6.8903e-05 on 1 procs for 1 steps with 100 atoms

run 1 pre no post no
Step v_emin v_elast PotEng 
     309   -2.9871562    10.447325    10.448599 
     310   -2.9871562    10.447325    10.456716 
Loop time of 5.50747e-05 on 1 procs for 1 steps with 100 atoms

run 1 pre no post no
Step v_emin v_elast PotEng 
     310   -2.9871562    10.447325    10.456716 
     311   -2.9871562    10.447325    10.448476 
Loop time of 5.38826e-05 on 1 procs for 1 steps with 100 atoms

run 1 pre no post no
Step v_emin v_elast PotEng 
     311   -2.9871562    10.447325    10.448476 
     312   -2.9871562    10.447325    10.439837 
Loop time of 5.48363e-05 on 1 procs for 1 steps with 100 atoms

variable elast equal $e
variable elast equal 10.4398368968349
run 1 pre no post no
Step v_emin v_elast PotEng 
     312   -2.9871562    10.439837    10.439837 
     313   -2.9871562    10.439837    10.450986 
Loop time of 5.50747e-05 on 1 procs for 1 steps with 100 atoms

run 1 pre no post no
Step v_emin v_elast PotEng 
     313   -2.9871562    10.439837    10.450986 
     314   -2.9871562    10.439837     10.44121 
Loop time of 5.50747e-05 on 1 procs for 1 steps with 100 atoms

run 1 pre no post no
Step v_emin v_elast PotEng 
     314   -2.9871562    10.439837     10.44121 
     315   -2.9871562    10.439837     10.54088 
Loop time of 5.50747e-05 on 1 procs for 1 steps with 100 atoms

run 1 pre no post no
Step v_emin v_elast PotEng 
     315   -2.9871562    10.439837     10.54088 
     316   -2.9871562    10.439837    10.409318 
Loop time of 5.48363e-05 on 1 procs for 1 steps with 100 atoms

variable elast equal $e
variable elast equal 10.4093182011396
run 1 pre no post no
Step v_emin v_elast PotEng 
     316   -2.9871562    10.409318    10.409318 
     317   -2.9871562    10.409318    10.424684 
Loop time of 6.69956e-05 on 1 procs for 1 steps with 100 atoms

run 1 pre no post no
Step v_emin v_elast PotEng 
     317   -2.9871562    10.409318    10.424684 
     318   -2.9871562    10.409318    10.626238 
Loop time of 5.60284e-05 on 1 procs for 1 steps with 100 atoms

run 1 pre no post no
Step v_emin v_elast PotEng 
     318   -2.9871562    10.409318    10.626238 
     319   -2.9871562    10.409318    10.676429 
Loop time of 5.48363e-05 on 1 procs for 1 steps with 100 atoms

run 1 pre no post no
Step v_emin v_elast PotEng 
     319   -2.9871562    10.409318    10.676429 
     320   -2.9871562    10.409318     10.33932 
Loop time of 5.60284e-05 on 1 procs for 1 steps with 100 atoms

variable elast equal $e
variable elast equal 10.3393204002771
run 1 pre no post no
Step v_emin v_elast PotEng 
     320   -2.9871562     10.33932     10.33932 
     321   -2.9871562     10.33932    10.300267 
Loop time of 5.4121e-05 on 1 procs for 1 steps with 100 atoms

variable elast equal $e
variable elast equal 10.300267216082
run 1 pre no post no
Step v_emin v_elast PotEng 
     321   -2.9871562    10.300267    10.300267 
     322   -2.9871562    10.300267    10.198384 
Loop time of 5.38826e-05 on 1 procs for 1 steps with 100 atoms

variable elast equal $e
variable elast equal 10.1983841628116
run 1 pre no post no
Step v_emin v_elast PotEng 
     322   -2.9871562    10.198384    10.198384 
     323   -2.9871562    10.198384    10.122284 
Loop time of 5.50747e-05 on 1 procs for 1 steps with 100 atoms

variable elast equal $e
variable elast equal 10.1222843115261
run 1 pre no post no
Step v_emin v_elast PotEng 
     323   -2.9871562    10.122284    10.122284 
     324   -2.9871562    10.122284    10.123868 
Loop time of 5.38826e-05 on 1 procs for 1 steps with 100 atoms

run 1 pre no post no
Step v_emin v_elast PotEng 
     324   -2.9871562    10.122284    10.123868 
     325   -2.9871562    10.122284    10.129748 
Loop time of 6.8903e-05 on 1 procs for 1 steps with 100 atoms

run 1 pre no post no
Step v_emin v_elast PotEng 
     325   -2.9871562    10.122284    10.129748 
     326   -2.9871562    10.122284    10.131595 
Loop time of 5.50747e-05 on 1 procs for 1 steps with 100 atoms

run 1 pre no post no
Step v_emin v_elast PotEng 
     326   -2.9871562    10.122284    10.131595 
[...]
    2914   -2.9871562   -2.7313164   -2.6936687 
Loop time of 5.31673e-05 on 1 procs for 1 steps with 100 atoms

run 1 pre no post no
Step v_emin v_elast PotEng 
    2914   -2.9871562   -2.7313164   -2.6936687 
    2915   -2.9871562   -2.7313164    -2.723629 
Loop time of 5.31673e-05 on 1 procs for 1 steps with 100 atoms

run 1 pre no post no
Step v_emin v_elast PotEng 
    2915   -2.9871562   -2.7313164    -2.723629 
    2916   -2.9871562   -2.7313164   -2.6966839 
Loop time of 5.29289e-05 on 1 procs for 1 steps with 100 atoms

run 1 pre no post no
Step v_emin v_elast PotEng 
    2916   -2.9871562   -2.7313164   -2.6966839 
    2917   -2.9871562   -2.7313164    -2.721073 
Loop time of 5.22137e-05 on 1 procs for 1 steps with 100 atoms

run 1 pre no post no
Step v_emin v_elast PotEng 
    2917   -2.9871562   -2.7313164    -2.721073 
    2918   -2.9871562   -2.7313164   -2.7002105 
Loop time of 5.19753e-05 on 1 procs for 1 steps with 100 atoms

run 1 pre no post no
Step v_emin v_elast PotEng 
    2918   -2.9871562   -2.7313164   -2.7002105 
    2919   -2.9871562   -2.7313164   -2.6827875 
Loop time of 5.19753e-05 on 1 procs for 1 steps with 100 atoms

run 1 pre no post no
Step v_emin v_elast PotEng 
    2919   -2.9871562   -2.7313164   -2.6827875 
    2920   -2.9871562   -2.7313164   -2.7043776 
Loop time of 5.29289e-05 on 1 procs for 1 steps with 100 atoms

run 1 pre no post no
Step v_emin v_elast PotEng 
    2920   -2.9871562   -2.7313164   -2.7043776 
    2921   -2.9871562   -2.7313164   -2.7107544 
Loop time of 5.19753e-05 on 1 procs for 1 steps with 100 atoms

run 1 pre no post no
Step v_emin v_elast PotEng 
    2921   -2.9871562   -2.7313164   -2.7107544 
    2922   -2.9871562   -2.7313164   -2.7044285 
Loop time of 8.10623e-05 on 1 procs for 1 steps with 100 atoms

run 1 pre no post no
Step v_emin v_elast PotEng 
    2922   -2.9871562   -2.7313164   -2.7044285 
    2923   -2.9871562   -2.7313164   -2.7351236 
Loop time of 5.31673e-05 on 1 procs for 1 steps with 100 atoms

variable elast equal $e
variable elast equal -2.73512356352292
run 1 pre no post no
Step v_emin v_elast PotEng 
    2923   -2.9871562   -2.7351236   -2.7351236 
    2924   -2.9871562   -2.7351236   -2.7233904 
Loop time of 5.19753e-05 on 1 procs for 1 steps with 100 atoms

run 1 pre no post no
Step v_emin v_elast PotEng 
    2924   -2.9871562   -2.7351236   -2.7233904 
    2925   -2.9871562   -2.7351236   -2.7053821 
Loop time of 5.29289e-05 on 1 procs for 1 steps with 100 atoms

run 1 pre no post no
Step v_emin v_elast PotEng 
    2925   -2.9871562   -2.7351236   -2.7053821 
    2926   -2.9871562   -2.7351236   -2.7178283 
Loop time of 5.19753e-05 on 1 procs for 1 steps with 100 atoms

run 1 pre no post no
Step v_emin v_elast PotEng 
    2926   -2.9871562   -2.7351236   -2.7178283 
    2927   -2.9871562   -2.7351236    -2.731899 
Loop time of 5.19753e-05 on 1 procs for 1 steps with 100 atoms

run 1 pre no post no
Step v_emin v_elast PotEng 
    2927   -2.9871562   -2.7351236    -2.731899 
    2928   -2.9871562   -2.7351236   -2.7152521 
Loop time of 5.29289e-05 on 1 procs for 1 steps with 100 atoms

run 1 pre no post no
Step v_emin v_elast PotEng 
    2928   -2.9871562   -2.7351236   -2.7152521 
    2929   -2.9871562   -2.7351236   -2.7257277 
Loop time of 5.29289e-05 on 1 procs for 1 steps with 100 atoms

run 1 pre no post no
Step v_emin v_elast PotEng 
    2929   -2.9871562   -2.7351236   -2.7257277 
    2930   -2.9871562   -2.7351236    -2.723331 
Loop time of 6.7234e-05 on 1 procs for 1 steps with 100 atoms

run 1 pre no post no
Step v_emin v_elast PotEng 
    2930   -2.9871562   -2.7351236    -2.723331 
    2931   -2.9871562   -2.7351236   -2.7304886 
Loop time of 5.19753e-05 on 1 procs for 1 steps with 100 atoms

run 1 pre no post no
Step v_emin v_elast PotEng 
    2931   -2.9871562   -2.7351236   -2.7304886 
    2932   -2.9871562   -2.7351236   -2.7335735 
Loop time of 5.29289e-05 on 1 procs for 1 steps with 100 atoms

run 1 pre no post no
Step v_emin v_elast PotEng 
    2932   -2.9871562   -2.7351236   -2.7335735 
    2933   -2.9871562   -2.7351236   -2.7299227 
Loop time of 5.31673e-05 on 1 procs for 1 steps with 100 atoms

run 1 pre no post no
Step v_emin v_elast PotEng 
    2933   -2.9871562   -2.7351236   -2.7299227 
    2934   -2.9871562   -2.7351236    -2.698655 
Loop time of 5.19753e-05 on 1 procs for 1 steps with 100 atoms

run 1 pre no post no
Step v_emin v_elast PotEng 
    2934   -2.9871562   -2.7351236    -2.698655 
    2935   -2.9871562   -2.7351236   -2.6739392 
Loop time of 5.19753e-05 on 1 procs for 1 steps with 100 atoms

run 1 pre no post no
Step v_emin v_elast PotEng 
    2935   -2.9871562   -2.7351236   -2.6739392 
    2936   -2.9871562   -2.7351236   -2.7547598 
Loop time of 5.29289e-05 on 1 procs for 1 steps with 100 atoms

variable elast equal $e
variable elast equal -2.75475975539447
run 1 pre no post no
Step v_emin v_elast PotEng 
    2936   -2.9871562   -2.7547598   -2.7547598 
    2937   -2.9871562   -2.7547598   -2.7108237 
Loop time of 0.000102043 on 1 procs for 1 steps with 100 atoms

run 1 pre no post no
Step v_emin v_elast PotEng 
    2937   -2.9871562   -2.7547598   -2.7108237 
    2938   -2.9871562   -2.7547598   -2.7404591 
Loop time of 7.20024e-05 on 1 procs for 1 steps with 100 atoms

run 1 pre no post no
Step v_emin v_elast PotEng 
    2938   -2.9871562   -2.7547598   -2.7404591 
    2939   -2.9871562   -2.7547598   -2.7303918 
Loop time of 5.31673e-05 on 1 procs for 1 steps with 100 atoms

run 1 pre no post no
Step v_emin v_elast PotEng 
    2939   -2.9871562   -2.7547598   -2.7303918 
    2940   -2.9871562   -2.7547598   -2.7224369 
Loop time of 5.19753e-05 on 1 procs for 1 steps with 100 atoms

run 1 pre no post no
Step v_emin v_elast PotEng 
    2940   -2.9871562   -2.7547598   -2.7224369 
    2941   -2.9871562   -2.7547598   -2.7529387 
Loop time of 5.29289e-05 on 1 procs for 1 steps with 100 atoms

run 1 pre no post no
Step v_emin v_elast PotEng 
    2941   -2.9871562   -2.7547598   -2.7529387 
    2942   -2.9871562   -2.7547598   -2.7444396 
Loop time of 5.19753e-05 on 1 procs for 1 steps with 100 atoms

run 1 pre no post no
Step v_emin v_elast PotEng 
    2942   -2.9871562   -2.7547598   -2.7444396 
    2943   -2.9871562   -2.7547598   -2.7323063 
Loop time of 5.31673e-05 on 1 procs for 1 steps with 100 atoms

run 1 pre no post no
Step v_emin v_elast PotEng 
    2943   -2.9871562   -2.7547598   -2.7323063 
    2944   -2.9871562   -2.7547598   -2.7528556 
Loop time of 5.19753e-05 on 1 procs for 1 steps with 100 atoms

run 1 pre no post no
Step v_emin v_elast PotEng 
    2944   -2.9871562   -2.7547598   -2.7528556 
    2945   -2.9871562   -2.7547598   -2.7451087 
Loop time of 5.19753e-05 on 1 procs for 1 steps with 100 atoms

run 1 pre no post no
Step v_emin v_elast PotEng 
    2945   -2.9871562   -2.7547598   -2.7451087 
    2946   -2.9871562   -2.7547598   -2.7360536 
Loop time of 5.19753e-05 on 1 procs for 1 steps with 100 atoms

run 1 pre no post no
Step v_emin v_elast PotEng 
    2946   -2.9871562   -2.7547598   -2.7360536 
    2947   -2.9871562   -2.7547598   -2.7427274 
Loop time of 5.31673e-05 on 1 procs for 1 steps with 100 atoms

run 1 pre no post no
Step v_emin v_elast PotEng 
    2947   -2.9871562   -2.7547598   -2.7427274 
    2948   -2.9871562   -2.7547598   -2.7540552 
Loop time of 5.19753e-05 on 1 procs for 1 steps with 100 atoms

run 1 pre no post no
Step v_emin v_elast PotEng 
    2948   -2.9871562   -2.7547598   -2.7540552 
    2949   -2.9871562   -2.7547598   -2.7409943 
Loop time of 5.19753e-05 on 1 procs for 1 steps with 100 atoms

run 1 pre no post no
Step v_emin v_elast PotEng 
    2949   -2.9871562   -2.7547598   -2.7409943 
    2950   -2.9871562   -2.7547598   -2.7479646 
Loop time of 5.19753e-05 on 1 procs for 1 steps with 100 atoms

run 1 pre no post no
Step v_emin v_elast PotEng 
    2950   -2.9871562   -2.7547598   -2.7479646 
    2951   -2.9871562   -2.7547598   -2.7134311 
Loop time of 5.19753e-05 on 1 procs for 1 steps with 100 atoms

run 1 pre no post no
Step v_emin v_elast PotEng 
    2951   -2.9871562   -2.7547598   -2.7134311 
    2952   -2.9871562   -2.7547598    -2.738161 
Loop time of 5.22137e-05 on 1 procs for 1 steps with 100 atoms

run 1 pre no post no
Step v_emin v_elast PotEng 
    2952   -2.9871562   -2.7547598    -2.738161 
    2953   -2.9871562   -2.7547598    -2.723015 
Loop time of 5.29289e-05 on 1 procs for 1 steps with 100 atoms

run 1 pre no post no
Step v_emin v_elast PotEng 
    2953   -2.9871562   -2.7547598    -2.723015 
    2954   -2.9871562   -2.7547598   -2.7423346 
Loop time of 5.19753e-05 on 1 procs for 1 steps with 100 atoms

run 1 pre no post no
Step v_emin v_elast PotEng 
    2954   -2.9871562   -2.7547598   -2.7423346 
    2955   -2.9871562   -2.7547598   -2.7501533 
Loop time of 6.79493e-05 on 1 procs for 1 steps with 100 atoms

run 1 pre no post no
Step v_emin v_elast PotEng 
    2955   -2.9871562   -2.7547598   -2.7501533 
    2956   -2.9871562   -2.7547598   -2.7545492 
Loop time of 5.22137e-05 on 1 procs for 1 steps with 100 atoms

variable elast equal $e
variable elast equal -2.75454924955991
run 1 pre no post no
Step v_emin v_elast PotEng 
    2956   -2.9871562   -2.7545492   -2.7545492 
    2957   -2.9871562   -2.7545492   -2.6673599 
Loop time of 5.19753e-05 on 1 procs for 1 steps with 100 atoms

run 1 pre no post no
Step v_emin v_elast PotEng 
    2957   -2.9871562   -2.7545492   -2.6673599 
    2958   -2.9871562   -2.7545492   -2.7535932 
Loop time of 5.29289e-05 on 1 procs for 1 steps with 100 atoms

run 1 pre no post no
Step v_emin v_elast PotEng 
    2958   -2.9871562   -2.7545492   -2.7535932 
    2959   -2.9871562   -2.7545492    -2.756707 
Loop time of 5.19753e-05 on 1 procs for 1 steps with 100 atoms

variable elast equal $e
variable elast equal -2.75670702993096
run 1 pre no post no
Step v_emin v_elast PotEng 
    2959   -2.9871562    -2.756707    -2.756707 
    2960   -2.9871562    -2.756707   -2.7520207 
Loop time of 5.19753e-05 on 1 procs for 1 steps with 100 atoms

run 1 pre no post no
Step v_emin v_elast PotEng 
    2960   -2.9871562    -2.756707   -2.7520207 
    2961   -2.9871562    -2.756707   -2.7506403 
Loop time of 5.19753e-05 on 1 procs for 1 steps with 100 atoms

run 1 pre no post no
Step v_emin v_elast PotEng 
    2961   -2.9871562    -2.756707   -2.7506403 
    2962   -2.9871562    -2.756707   -2.7377436 
Loop time of 5.19753e-05 on 1 procs for 1 steps with 100 atoms

run 1 pre no post no
Step v_emin v_elast PotEng 
    2962   -2.9871562    -2.756707   -2.7377436 
    2963   -2.9871562    -2.756707   -2.7336284 
Loop time of 7.79629e-05 on 1 procs for 1 steps with 100 atoms

run 1 pre no post no
Step v_emin v_elast PotEng 
    2963   -2.9871562    -2.756707   -2.7336284 
    2964   -2.9871562    -2.756707   -2.7281555 
Loop time of 5.19753e-05 on 1 procs for 1 steps with 100 atoms

run 1 pre no post no
Step v_emin v_elast PotEng 
    2964   -2.9871562    -2.756707   -2.7281555 
    2965   -2.9871562    -2.756707   -2.7343059 
Loop time of 5.19753e-05 on 1 procs for 1 steps with 100 atoms

run 1 pre no post no
Step v_emin v_elast PotEng 
    2965   -2.9871562    -2.756707   -2.7343059 
    2966   -2.9871562    -2.756707   -2.7157438 
Loop time of 5.19753e-05 on 1 procs for 1 steps with 100 atoms

run 1 pre no post no
Step v_emin v_elast PotEng 
    2966   -2.9871562    -2.756707   -2.7157438 
    2967   -2.9871562    -2.756707   -2.7296743 
Loop time of 5.29289e-05 on 1 procs for 1 steps with 100 atoms

run 1 pre no post no
Step v_emin v_elast PotEng 
    2967   -2.9871562    -2.756707   -2.7296743 
    2968   -2.9871562    -2.756707    -2.749098 
Loop time of 5.29289e-05 on 1 procs for 1 steps with 100 atoms

run 1 pre no post no
Step v_emin v_elast PotEng 
    2968   -2.9871562    -2.756707    -2.749098 
    2969   -2.9871562    -2.756707   -2.7479903 
Loop time of 5.31673e-05 on 1 procs for 1 steps with 100 atoms

run 1 pre no post no
Step v_emin v_elast PotEng 
    2969   -2.9871562    -2.756707   -2.7479903 
    2970   -2.9871562    -2.756707   -2.7584107 
Loop time of 5.19753e-05 on 1 procs for 1 steps with 100 atoms

variable elast equal $e
variable elast equal -2.75841067805857
run 1 pre no post no
Step v_emin v_elast PotEng 
    2970   -2.9871562   -2.7584107   -2.7584107 
    2971   -2.9871562   -2.7584107   -2.7449724 
Loop time of 5.22137e-05 on 1 procs for 1 steps with 100 atoms

run 1 pre no post no
Step v_emin v_elast PotEng 
    2971   -2.9871562   -2.7584107   -2.7449724 
    2972   -2.9871562   -2.7584107   -2.7525611 
Loop time of 5.29289e-05 on 1 procs for 1 steps with 100 atoms

run 1 pre no post no
Step v_emin v_elast PotEng 
    2972   -2.9871562   -2.7584107   -2.7525611 
    2973   -2.9871562   -2.7584107   -2.7594558 
Loop time of 5.19753e-05 on 1 procs for 1 steps with 100 atoms

variable elast equal $e
variable elast equal -2.75945580359897
run 1 pre no post no
Step v_emin v_elast PotEng 
    2973   -2.9871562   -2.7594558   -2.7594558 
    2974   -2.9871562   -2.7594558   -2.7559875 
Loop time of 5.22137e-05 on 1 procs for 1 steps with 100 atoms

run 1 pre no post no
Step v_emin v_elast PotEng 
    2974   -2.9871562   -2.7594558   -2.7559875 
    2975   -2.9871562   -2.7594558    -2.736244 
Loop time of 5.29289e-05 on 1 procs for 1 steps with 100 atoms

run 1 pre no post no
Step v_emin v_elast PotEng 
    2975   -2.9871562   -2.7594558    -2.736244 
    2976   -2.9871562   -2.7594558   -2.7404963 
Loop time of 5.29289e-05 on 1 procs for 1 steps with 100 atoms

run 1 pre no post no
Step v_emin v_elast PotEng 
    2976   -2.9871562   -2.7594558   -2.7404963 
    2977   -2.9871562   -2.7594558   -2.7267964 
Loop time of 5.19753e-05 on 1 procs for 1 steps with 100 atoms

run 1 pre no post no
Step v_emin v_elast PotEng 
    2977   -2.9871562   -2.7594558   -2.7267964 
    2978   -2.9871562   -2.7594558   -2.7480216 
Loop time of 5.19753e-05 on 1 procs for 1 steps with 100 atoms

run 1 pre no post no
Step v_emin v_elast PotEng 
    2978   -2.9871562   -2.7594558   -2.7480216 
    2979   -2.9871562   -2.7594558   -2.7216906 
Loop time of 5.19753e-05 on 1 procs for 1 steps with 100 atoms

run 1 pre no post no
Step v_emin v_elast PotEng 
    2979   -2.9871562   -2.7594558   -2.7216906 
    2980   -2.9871562   -2.7594558   -2.7498653 
Loop time of 5.29289e-05 on 1 procs for 1 steps with 100 atoms

run 1 pre no post no
Step v_emin v_elast PotEng 
    2980   -2.9871562   -2.7594558   -2.7498653 
    2981   -2.9871562   -2.7594558   -2.7437664 
Loop time of 5.19753e-05 on 1 procs for 1 steps with 100 atoms

run 1 pre no post no
Step v_emin v_elast PotEng 
    2981   -2.9871562   -2.7594558   -2.7437664 
    2982   -2.9871562   -2.7594558   -2.7285142 
Loop time of 5.29289e-05 on 1 procs for 1 steps with 100 atoms

run 1 pre no post no
Step v_emin v_elast PotEng 
    2982   -2.9871562   -2.7594558   -2.7285142 
    2983   -2.9871562   -2.7594558   -2.7527429 
Loop time of 5.19753e-05 on 1 procs for 1 steps with 100 atoms

run 1 pre no post no
Step v_emin v_elast PotEng 
    2983   -2.9871562   -2.7594558   -2.7527429 
    2984   -2.9871562   -2.7594558   -2.7612664 
Loop time of 5.19753e-05 on 1 procs for 1 steps with 100 atoms

variable elast equal $e
variable elast equal -2.7612664223687
run 1 pre no post no
Step v_emin v_elast PotEng 
    2984   -2.9871562   -2.7612664   -2.7612664 
    2985   -2.9871562   -2.7612664   -2.7598154 
Loop time of 5.29289e-05 on 1 procs for 1 steps with 100 atoms

run 1 pre no post no
Step v_emin v_elast PotEng 
    2985   -2.9871562   -2.7612664   -2.7598154 
    2986   -2.9871562   -2.7612664   -2.7410462 
Loop time of 5.19753e-05 on 1 procs for 1 steps with 100 atoms

run 1 pre no post no
Step v_emin v_elast PotEng 
    2986   -2.9871562   -2.7612664   -2.7410462 
    2987   -2.9871562   -2.7612664   -2.7588023 
Loop time of 5.19753e-05 on 1 procs for 1 steps with 100 atoms

run 1 pre no post no
Step v_emin v_elast PotEng 
    2987   -2.9871562   -2.7612664   -2.7588023 
    2988   -2.9871562   -2.7612664   -2.7213818 
Loop time of 6.69956e-05 on 1 procs for 1 steps with 100 atoms

run 1 pre no post no
Step v_emin v_elast PotEng 
    2988   -2.9871562   -2.7612664   -2.7213818 
    2989   -2.9871562   -2.7612664   -2.7468032 
Loop time of 5.19753e-05 on 1 procs for 1 steps with 100 atoms

run 1 pre no post no
Step v_emin v_elast PotEng 
    2989   -2.9871562   -2.7612664   -2.7468032 
    2990   -2.9871562   -2.7612664   -2.7137629 
Loop time of 5.19753e-05 on 1 procs for 1 steps with 100 atoms

run 1 pre no post no
Step v_emin v_elast PotEng 
    2990   -2.9871562   -2.7612664   -2.7137629 
    2991   -2.9871562   -2.7612664    -2.744441 
Loop time of 5.31673e-05 on 1 procs for 1 steps with 100 atoms

run 1 pre no post no
Step v_emin v_elast PotEng 
    2991   -2.9871562   -2.7612664    -2.744441 
    2992   -2.9871562   -2.7612664   -2.7529224 
Loop time of 5.31673e-05 on 1 procs for 1 steps with 100 atoms

run 1 pre no post no
Step v_emin v_elast PotEng 
    2992   -2.9871562   -2.7612664   -2.7529224 
    2993   -2.9871562   -2.7612664   -2.7641988 
Loop time of 5.19753e-05 on 1 procs for 1 steps with 100 atoms

variable elast equal $e
variable elast equal -2.76419876769067
run 1 pre no post no
Step v_emin v_elast PotEng 
    2993   -2.9871562   -2.7641988   -2.7641988 
    2994   -2.9871562   -2.7641988   -2.7536455 
Loop time of 5.29289e-05 on 1 procs for 1 steps with 100 atoms

run 1 pre no post no
Step v_emin v_elast PotEng 
    2994   -2.9871562   -2.7641988   -2.7536455 
    2995   -2.9871562   -2.7641988   -2.7591169 
Loop time of 5.19753e-05 on 1 procs for 1 steps with 100 atoms

run 1 pre no post no
Step v_emin v_elast PotEng 
    2995   -2.9871562   -2.7641988   -2.7591169 
    2996   -2.9871562   -2.7641988   -2.7555677 
Loop time of 6.8903e-05 on 1 procs for 1 steps with 100 atoms

run 1 pre no post no
Step v_emin v_elast PotEng 
    2996   -2.9871562   -2.7641988   -2.7555677 
    2997   -2.9871562   -2.7641988   -2.7578373 
Loop time of 5.29289e-05 on 1 procs for 1 steps with 100 atoms

run 1 pre no post no
Step v_emin v_elast PotEng 
    2997   -2.9871562   -2.7641988   -2.7578373 
    2998   -2.9871562   -2.7641988   -2.7335691 
Loop time of 5.19753e-05 on 1 procs for 1 steps with 100 atoms

run 1 pre no post no
Step v_emin v_elast PotEng 
    2998   -2.9871562   -2.7641988   -2.7335691 
    2999   -2.9871562   -2.7641988   -2.7300773 
Loop time of 5.19753e-05 on 1 procs for 1 steps with 100 atoms

run 1 pre no post no
Step v_emin v_elast PotEng 
    2999   -2.9871562   -2.7641988   -2.7300773 
    3000   -2.9871562   -2.7641988   -2.7617331 
Loop time of 5.19753e-05 on 1 procs for 1 steps with 100 atoms

variable nbuild equal nbuild
run 0
WARNING: No fixes defined, atoms won't move (../verlet.cpp:52)
Per MPI rank memory allocation (min/avg/max) = 2.928 | 2.928 | 2.928 Mbytes
Step v_emin v_elast PotEng 
    3000   -2.9871562   -2.7641988   -2.7641988 
Loop time of 1.19209e-06 on 1 procs for 0 steps with 100 atoms

0.0% CPU use with 1 MPI tasks x no OpenMP threads

MPI task timing breakdown:
Section |  min time  |  avg time  |  max time  |%varavg| %total
---------------------------------------------------------------
Pair    | 0          | 0          | 0          |   0.0 |  0.00
Neigh   | 0          | 0          | 0          |   0.0 |  0.00
Comm    | 0          | 0          | 0          |   0.0 |  0.00
Output  | 0          | 0          | 0          |   0.0 |  0.00
Modify  | 0          | 0          | 0          |   0.0 |  0.00
Other   |            | 1.192e-06  |            |       |100.00

Nlocal:    100 ave 100 max 100 min
Histogram: 1 0 0 0 0 0 0 0 0 0
Nghost:    150 ave 150 max 150 min
Histogram: 1 0 0 0 0 0 0 0 0 0
Neighs:    1020 ave 1020 max 1020 min
Histogram: 1 0 0 0 0 0 0 0 0 0

Total # of neighbors = 1020
Ave neighs/atom = 10.2
Neighbor list builds = 0
Dangerous builds = 0
Total wall time: 0:00:00
